 Entering Gaussian System, Link 0=g16
 Initial command:
 /gpfs/loomis/apps/avx/software/Gaussian/16-C.01_AVX/g16/l1.exe "/home/fas/batista/pev4/scratch60/gauss-scratch/Gau-1366.inp" -scrdir="/home/fas/batista/pev4/scratch60/gauss-scratch/"
 Entering Link 1 = /gpfs/loomis/apps/avx/software/Gaussian/16-C.01_AVX/g16/l1.exe PID=      1367.
  
 Copyright (c) 1988-2019, Gaussian, Inc.  All Rights Reserved.
  
 This is part of the Gaussian(R) 16 program.  It is based on
 the Gaussian(R) 09 system (copyright 2009, Gaussian, Inc.),
 the Gaussian(R) 03 system (copyright 2003, Gaussian, Inc.),
 the Gaussian(R) 98 system (copyright 1998, Gaussian, Inc.),
 the Gaussian(R) 94 system (copyright 1995, Gaussian, Inc.),
 the Gaussian 92(TM) system (copyright 1992, Gaussian, Inc.),
 the Gaussian 90(TM) system (copyright 1990, Gaussian, Inc.),
 the Gaussian 88(TM) system (copyright 1988, Gaussian, Inc.),
 the Gaussian 86(TM) system (copyright 1986, Carnegie Mellon
 University), and the Gaussian 82(TM) system (copyright 1983,
 Carnegie Mellon University). Gaussian is a federally registered
 trademark of Gaussian, Inc.
  
 This software contains proprietary and confidential information,
 including trade secrets, belonging to Gaussian, Inc.
  
 This software is provided under written license and may be
 used, copied, transmitted, or stored only in accord with that
 written license.
  
 The following legend is applicable only to US Government
 contracts under FAR:
  
                    RESTRICTED RIGHTS LEGEND
  
 Use, reproduction and disclosure by the US Government is
 subject to restrictions as set forth in subparagraphs (a)
 and (c) of the Commercial Computer Software - Restricted
 Rights clause in FAR 52.227-19.
  
 Gaussian, Inc.
 340 Quinnipiac St., Bldg. 40, Wallingford CT 06492
  
  
 ---------------------------------------------------------------
 Warning -- This program may not be used in any manner that
 competes with the business of Gaussian, Inc. or will provide
 assistance to any competitor of Gaussian, Inc.  The licensee
 of this program is prohibited from giving any competitor of
 Gaussian, Inc. access to this program.  By using this program,
 the user acknowledges that Gaussian, Inc. is engaged in the
 business of creating and licensing software in the field of
 computational chemistry and represents and warrants to the
 licensee that it is not a competitor of Gaussian, Inc. and that
 it will not use this program in any manner prohibited above.
 ---------------------------------------------------------------
  

 Cite this work as:
 Gaussian 16, Revision C.01,
 M. J. Frisch, G. W. Trucks, H. B. Schlegel, G. E. Scuseria, 
 M. A. Robb, J. R. Cheeseman, G. Scalmani, V. Barone, 
 G. A. Petersson, H. Nakatsuji, X. Li, M. Caricato, A. V. Marenich, 
 J. Bloino, B. G. Janesko, R. Gomperts, B. Mennucci, H. P. Hratchian, 
 J. V. Ortiz, A. F. Izmaylov, J. L. Sonnenberg, D. Williams-Young, 
 F. Ding, F. Lipparini, F. Egidi, J. Goings, B. Peng, A. Petrone, 
 T. Henderson, D. Ranasinghe, V. G. Zakrzewski, J. Gao, N. Rega, 
 G. Zheng, W. Liang, M. Hada, M. Ehara, K. Toyota, R. Fukuda, 
 J. Hasegawa, M. Ishida, T. Nakajima, Y. Honda, O. Kitao, H. Nakai, 
 T. Vreven, K. Throssell, J. A. Montgomery, Jr., J. E. Peralta, 
 F. Ogliaro, M. J. Bearpark, J. J. Heyd, E. N. Brothers, K. N. Kudin, 
 V. N. Staroverov, T. A. Keith, R. Kobayashi, J. Normand, 
 K. Raghavachari, A. P. Rendell, J. C. Burant, S. S. Iyengar, 
 J. Tomasi, M. Cossi, J. M. Millam, M. Klene, C. Adamo, R. Cammi, 
 J. W. Ochterski, R. L. Martin, K. Morokuma, O. Farkas, 
 J. B. Foresman, and D. J. Fox, Gaussian, Inc., Wallingford CT, 2019.
 
 ******************************************
 Gaussian 16:  ES64L-G16RevC.01  3-Jul-2019
                28-Oct-2020 
 ******************************************
 %chk=config_11_15.chk
 %mem=58GB
 %nprocshared=10
 Will use up to   10 processors via shared memory.
 ----------------------------------------------------------------------
 #p opt=addgic freq wb97xd/cc-pvdz nosymm int=ultrafine scrf=(solvent=C
 arbonTetraChloride)
 ----------------------------------------------------------------------
 1/18=20,19=15,26=6,38=1,145=903/1,3;
 2/9=110,12=2,15=1,17=6,18=5,40=1/2;
 3/5=16,11=2,25=1,30=1,70=2201,71=1,72=11,74=-58,75=-5/1,2,3;
 4//1;
 5/5=2,38=5,53=11/2;
 6/7=2,8=2,9=2,10=2,28=1/1;
 7/30=1/1,2,3,16;
 1/18=20,19=15,26=6,145=903/3(2);
 2/9=110,15=1/2;
 99//99;
 2/9=110,15=1/2;
 3/5=16,11=2,25=1,30=1,70=2205,71=1,72=11,74=-58,75=-5/1,2,3;
 4/5=5,16=3,69=1/1;
 5/5=2,38=5,53=11/2;
 7/30=1/1,2,3,16;
 1/18=20,19=15,26=6,145=903/3(-5);
 2/9=110,15=1/2;
 6/7=2,8=2,9=2,10=2,19=2,28=1/1;
 99/9=1/99;
 Leave Link    1 at Wed Oct 28 00:10:17 2020, MaxMem=  7784628224 cpu:               5.3 elap:               0.6
 (Enter /gpfs/loomis/apps/avx/software/Gaussian/16-C.01_AVX/g16/l101.exe)
 ------------------------------------------------
 NM 2D-scan of HBT TD-WB97XD pVDZ in CTC Relaxed.
 ------------------------------------------------
 Symbolic Z-matrix:
 Charge =  0 Multiplicity = 1
 C                     1.56354  -3.24797  -0.00002 
 C                     1.00834  -1.96563  -0.00002 
 C                     1.79415  -0.78129  -0.00003 
 C                     3.18572  -0.91625  -0.00003 
 C                     3.74315  -2.20283  -0.00002 
 C                     2.95334  -3.35969  -0.00002 
 H                     0.9174   -4.13248  -0.00001 
 H                     3.83033  -0.03067  -0.00003 
 H                     4.83233  -2.29885  -0.00002 
 H                     3.42336  -4.34654  -0.00001 
 N                     1.00068   0.37281  -0.00003 
 S                    -0.70352  -1.61411  -0.00002 
 C                    -1.33923   1.07009   0.00001 
 C                    -2.68203   0.74383   0.00002 
 C                    -0.88173   2.47504   0.00004 
 C                    -3.65746   1.78146   0.00003 
 H                    -3.01273  -0.30006   0.00001 
 C                    -1.91295   3.47588   0.00004 
 C                    -3.27318   3.12272   0.00004 
 H                    -4.7174    1.51084   0.00003 
 H                    -1.58959   4.5215    0.00006 
 H                    -4.03751   3.90375   0.00005 
 C                    -0.32749   0.07063  -0.00002 
 O                     0.3509    2.70644   0.00005 
 H                     1.12575   1.07822   0. 
 
 Initializing the GIC definitions file.
 Number of initial coordinates =   134
 Number of input entries/lines =    52
 Number of additional coordinates =     2
 Number of removed coordinates =     0
 Number of frozen coordinates =     2
 Number of final active and frozen coordinates =   136
 ITRead=  0  0  0  0  0  0  0  0  0  0  0  0  0  0  0  0  0  0  0  0
 ITRead=  0  0  0  0  0
 MicOpt= -1 -1 -1 -1 -1 -1 -1 -1 -1 -1 -1 -1 -1 -1 -1 -1 -1 -1 -1 -1
 MicOpt= -1 -1 -1 -1 -1
 NAtoms=     25 NQM=       25 NQMF=       0 NMMI=      0 NMMIF=      0
                NMic=       0 NMicF=      0.
                    Isotopes and Nuclear Properties:
 (Nuclear quadrupole moments (NQMom) in fm**2, nuclear magnetic moments (NMagM)
  in nuclear magnetons)

  Atom         1           2           3           4           5           6           7           8           9          10
 IAtWgt=          12          12          12          12          12          12           1           1           1           1
 AtmWgt=  12.0000000  12.0000000  12.0000000  12.0000000  12.0000000  12.0000000   1.0078250   1.0078250   1.0078250   1.0078250
 NucSpn=           0           0           0           0           0           0           1           1           1           1
 AtZEff=  -0.0000000  -0.0000000  -0.0000000  -0.0000000  -0.0000000  -0.0000000  -0.0000000  -0.0000000  -0.0000000  -0.0000000
 NQMom=    0.0000000   0.0000000   0.0000000   0.0000000   0.0000000   0.0000000   0.0000000   0.0000000   0.0000000   0.0000000
 NMagM=    0.0000000   0.0000000   0.0000000   0.0000000   0.0000000   0.0000000   2.7928460   2.7928460   2.7928460   2.7928460
 AtZNuc=   6.0000000   6.0000000   6.0000000   6.0000000   6.0000000   6.0000000   1.0000000   1.0000000   1.0000000   1.0000000

  Atom        11          12          13          14          15          16          17          18          19          20
 IAtWgt=          14          32          12          12          12          12           1          12          12           1
 AtmWgt=  14.0030740  31.9720718  12.0000000  12.0000000  12.0000000  12.0000000   1.0078250  12.0000000  12.0000000   1.0078250
 NucSpn=           2           0           0           0           0           0           1           0           0           1
 AtZEff=  -0.0000000  -0.0000000  -0.0000000  -0.0000000  -0.0000000  -0.0000000  -0.0000000  -0.0000000  -0.0000000  -0.0000000
 NQMom=    2.0440000   0.0000000   0.0000000   0.0000000   0.0000000   0.0000000   0.0000000   0.0000000   0.0000000   0.0000000
 NMagM=    0.4037610   0.0000000   0.0000000   0.0000000   0.0000000   0.0000000   2.7928460   0.0000000   0.0000000   2.7928460
 AtZNuc=   7.0000000  16.0000000   6.0000000   6.0000000   6.0000000   6.0000000   1.0000000   6.0000000   6.0000000   1.0000000

  Atom        21          22          23          24          25
 IAtWgt=           1           1          12          16           1
 AtmWgt=   1.0078250   1.0078250  12.0000000  15.9949146   1.0078250
 NucSpn=           1           1           0           0           1
 AtZEff=  -0.0000000  -0.0000000  -0.0000000  -0.0000000  -0.0000000
 NQMom=    0.0000000   0.0000000   0.0000000   0.0000000   0.0000000
 NMagM=    2.7928460   2.7928460   0.0000000   0.0000000   2.7928460
 AtZNuc=   1.0000000   1.0000000   6.0000000   8.0000000   1.0000000
 Leave Link  101 at Wed Oct 28 00:10:20 2020, MaxMem=  7784628224 cpu:              32.5 elap:               3.3
 (Enter /gpfs/loomis/apps/avx/software/Gaussian/16-C.01_AVX/g16/l103.exe)

 GradGradGradGradGradGradGradGradGradGradGradGradGradGradGradGradGradGrad
 Berny optimization.
 Initialization pass.
                           ----------------------------
                           !    Initial Parameters    !
                           ! (Angstroms and Degrees)  !
 --------------------------                            --------------------------
 ! Name  Definition              Value          Derivative Info.                !
 --------------------------------------------------------------------------------
 ! R1    R(1,2)                  1.3974         estimate D2E/DX2                !
 ! R2    R(1,6)                  1.3943         estimate D2E/DX2                !
 ! R3    R(1,7)                  1.0954         estimate D2E/DX2                !
 ! R4    R(2,3)                  1.4213         estimate D2E/DX2                !
 ! R5    R(2,12)                 1.7476         estimate D2E/DX2                !
 ! R6    R(3,4)                  1.3981         estimate D2E/DX2                !
 ! R7    R(3,11)                 1.4006         estimate D2E/DX2                !
 ! R8    R(4,5)                  1.4021         estimate D2E/DX2                !
 ! R9    R(4,8)                  1.0953         estimate D2E/DX2                !
 ! R10   R(5,6)                  1.4008         estimate D2E/DX2                !
 ! R11   R(5,9)                  1.0934         estimate D2E/DX2                !
 ! R12   R(6,10)                 1.0931         estimate D2E/DX2                !
 ! R13   R(11,23)                1.3621         estimate D2E/DX2                !
 ! R14   R(11,25)                0.7164         estimate D2E/DX2                !
 ! R15   R(12,23)                1.7262         estimate D2E/DX2                !
 ! R16   R(13,14)                1.3819         estimate D2E/DX2                !
 ! R17   R(13,15)                1.4776         estimate D2E/DX2                !
 ! R18   R(13,23)                1.4222         estimate D2E/DX2                !
 ! R19   R(14,16)                1.4241         estimate D2E/DX2                !
 ! R20   R(14,17)                1.095          estimate D2E/DX2                !
 ! R21   R(15,18)                1.437          estimate D2E/DX2                !
 ! R22   R(15,24)                1.2542         estimate D2E/DX2                !
 ! R23   R(16,19)                1.3952         estimate D2E/DX2                !
 ! R24   R(16,20)                1.0939         estimate D2E/DX2                !
 ! R25   R(18,19)                1.4053         estimate D2E/DX2                !
 ! R26   R(18,21)                1.0945         estimate D2E/DX2                !
 ! R27   R(19,22)                1.0928         estimate D2E/DX2                !
 ! A1    A(2,1,6)              118.0064         estimate D2E/DX2                !
 ! A2    A(2,1,7)              120.4411         estimate D2E/DX2                !
 ! A3    A(6,1,7)              121.5525         estimate D2E/DX2                !
 ! A4    A(1,2,3)              123.0255         estimate D2E/DX2                !
 ! A5    A(1,2,12)             125.0145         estimate D2E/DX2                !
 ! A6    A(3,2,12)             111.96           estimate D2E/DX2                !
 ! A7    A(2,3,4)              118.0246         estimate D2E/DX2                !
 ! A8    A(2,3,11)             111.9268         estimate D2E/DX2                !
 ! A9    A(4,3,11)             130.0487         estimate D2E/DX2                !
 ! A10   A(3,4,5)              118.9649         estimate D2E/DX2                !
 ! A11   A(3,4,8)              120.5112         estimate D2E/DX2                !
 ! A12   A(5,4,8)              120.5239         estimate D2E/DX2                !
 ! A13   A(4,5,6)              122.2525         estimate D2E/DX2                !
 ! A14   A(4,5,9)              118.4633         estimate D2E/DX2                !
 ! A15   A(6,5,9)              119.2841         estimate D2E/DX2                !
 ! A16   A(1,6,5)              119.7262         estimate D2E/DX2                !
 ! A17   A(1,6,10)             120.0633         estimate D2E/DX2                !
 ! A18   A(5,6,10)             120.2105         estimate D2E/DX2                !
 ! A19   A(3,11,23)            111.6916         estimate D2E/DX2                !
 ! A20   A(3,11,25)            135.4365         estimate D2E/DX2                !
 ! A21   A(23,11,25)           112.8719         estimate D2E/DX2                !
 ! A22   A(2,12,23)             89.0219         estimate D2E/DX2                !
 ! A23   A(14,13,15)           121.6933         estimate D2E/DX2                !
 ! A24   A(14,13,23)           121.6936         estimate D2E/DX2                !
 ! A25   A(15,13,23)           116.613          estimate D2E/DX2                !
 ! A26   A(13,14,16)           119.5739         estimate D2E/DX2                !
 ! A27   A(13,14,17)           121.2338         estimate D2E/DX2                !
 ! A28   A(16,14,17)           119.1923         estimate D2E/DX2                !
 ! A29   A(13,15,18)           116.1065         estimate D2E/DX2                !
 ! A30   A(13,15,24)           118.6697         estimate D2E/DX2                !
 ! A31   A(18,15,24)           125.2238         estimate D2E/DX2                !
 ! A32   A(14,16,19)           120.7822         estimate D2E/DX2                !
 ! A33   A(14,16,20)           118.9075         estimate D2E/DX2                !
 ! A34   A(19,16,20)           120.3103         estimate D2E/DX2                !
 ! A35   A(15,18,19)           121.3017         estimate D2E/DX2                !
 ! A36   A(15,18,21)           116.9593         estimate D2E/DX2                !
 ! A37   A(19,18,21)           121.739          estimate D2E/DX2                !
 ! A38   A(16,19,18)           120.5423         estimate D2E/DX2                !
 ! A39   A(16,19,22)           119.6313         estimate D2E/DX2                !
 ! A40   A(18,19,22)           119.8265         estimate D2E/DX2                !
 ! A41   A(11,23,12)           115.3997         estimate D2E/DX2                !
 ! A42   A(11,23,13)           122.5323         estimate D2E/DX2                !
 ! A43   A(12,23,13)           122.0681         estimate D2E/DX2                !
 ! D1    D(6,1,2,3)              0.0            estimate D2E/DX2                !
 ! D2    D(6,1,2,12)           180.0            estimate D2E/DX2                !
 ! D3    D(7,1,2,3)            179.9999         estimate D2E/DX2                !
 ! D4    D(7,1,2,12)            -0.0001         estimate D2E/DX2                !
 ! D5    D(2,1,6,5)             -0.0001         estimate D2E/DX2                !
 ! D6    D(2,1,6,10)           179.9999         estimate D2E/DX2                !
 ! D7    D(7,1,6,5)            179.9999         estimate D2E/DX2                !
 ! D8    D(7,1,6,10)             0.0            estimate D2E/DX2                !
 ! D9    D(1,2,3,4)              0.0002         estimate D2E/DX2                !
 ! D10   D(1,2,3,11)          -180.0            estimate D2E/DX2                !
 ! D11   D(12,2,3,4)          -179.9998         estimate D2E/DX2                !
 ! D12   D(12,2,3,11)            0.0            estimate D2E/DX2                !
 ! D13   D(1,2,12,23)          179.9997         estimate D2E/DX2                !
 ! D14   D(3,2,12,23)           -0.0003         estimate D2E/DX2                !
 ! D15   D(2,3,4,5)             -0.0002         estimate D2E/DX2                !
 ! D16   D(2,3,4,8)            179.9998         estimate D2E/DX2                !
 ! D17   D(11,3,4,5)           180.0            estimate D2E/DX2                !
 ! D18   D(11,3,4,8)             0.0001         estimate D2E/DX2                !
 ! D19   D(2,3,11,23)            0.0003         estimate D2E/DX2                !
 ! D20   D(2,3,11,25)          179.9963         estimate D2E/DX2                !
 ! D21   D(4,3,11,23)         -179.9999         estimate D2E/DX2                !
 ! D22   D(4,3,11,25)           -0.0039         estimate D2E/DX2                !
 ! D23   D(3,4,5,6)              0.0001         estimate D2E/DX2                !
 ! D24   D(3,4,5,9)           -179.9999         estimate D2E/DX2                !
 ! D25   D(8,4,5,6)            180.0            estimate D2E/DX2                !
 ! D26   D(8,4,5,9)              0.0            estimate D2E/DX2                !
 ! D27   D(4,5,6,1)              0.0001         estimate D2E/DX2                !
 ! D28   D(4,5,6,10)          -179.9999         estimate D2E/DX2                !
 ! D29   D(9,5,6,1)           -179.9999         estimate D2E/DX2                !
 ! D30   D(9,5,6,10)             0.0            estimate D2E/DX2                !
 ! D31   D(3,11,23,12)          -0.0006         estimate D2E/DX2                !
 ! D32   D(3,11,23,13)         179.9984         estimate D2E/DX2                !
 ! D33   D(25,11,23,12)       -179.9975         estimate D2E/DX2                !
 ! D34   D(25,11,23,13)          0.0015         estimate D2E/DX2                !
 ! D35   D(2,12,23,11)           0.0005         estimate D2E/DX2                !
 ! D36   D(2,12,23,13)        -179.9985         estimate D2E/DX2                !
 ! D37   D(15,13,14,16)          0.001          estimate D2E/DX2                !
 ! D38   D(15,13,14,17)       -179.9994         estimate D2E/DX2                !
 ! D39   D(23,13,14,16)       -179.9991         estimate D2E/DX2                !
 ! D40   D(23,13,14,17)          0.0005         estimate D2E/DX2                !
 ! D41   D(14,13,15,18)         -0.0012         estimate D2E/DX2                !
 ! D42   D(14,13,15,24)        179.9985         estimate D2E/DX2                !
 ! D43   D(23,13,15,18)        179.9989         estimate D2E/DX2                !
 ! D44   D(23,13,15,24)         -0.0014         estimate D2E/DX2                !
 ! D45   D(14,13,23,11)       -179.9999         estimate D2E/DX2                !
 ! D46   D(14,13,23,12)         -0.001          estimate D2E/DX2                !
 ! D47   D(15,13,23,11)          0.0            estimate D2E/DX2                !
 ! D48   D(15,13,23,12)        179.9989         estimate D2E/DX2                !
 ! D49   D(13,14,16,19)         -0.0002         estimate D2E/DX2                !
 ! D50   D(13,14,16,20)        179.9997         estimate D2E/DX2                !
 ! D51   D(17,14,16,19)       -179.9998         estimate D2E/DX2                !
 ! D52   D(17,14,16,20)          0.0001         estimate D2E/DX2                !
 ! D53   D(13,15,18,19)          0.0006         estimate D2E/DX2                !
 ! D54   D(13,15,18,21)        180.0            estimate D2E/DX2                !
 ! D55   D(24,15,18,19)       -179.9991         estimate D2E/DX2                !
 ! D56   D(24,15,18,21)          0.0003         estimate D2E/DX2                !
 ! D57   D(14,16,19,18)         -0.0004         estimate D2E/DX2                !
 ! D58   D(14,16,19,22)        179.9998         estimate D2E/DX2                !
 ! D59   D(20,16,19,18)        179.9997         estimate D2E/DX2                !
 ! D60   D(20,16,19,22)         -0.0001         estimate D2E/DX2                !
 ! D61   D(15,18,19,16)          0.0001         estimate D2E/DX2                !
 ! D62   D(15,18,19,22)        179.9999         estimate D2E/DX2                !
 ! D63   D(21,18,19,16)       -179.9992         estimate D2E/DX2                !
 ! D64   D(21,18,19,22)          0.0006         estimate D2E/DX2                !
 ! Qtot  GIC-1                  50.0            Frozen                          !
 ! Ptot  GIC-2                 140.0            Frozen                          !
 --------------------------------------------------------------------------------
 NOTE: GIC-type coordinates are in arbitrary units.
 Trust Radius=3.00D-01 FncErr=5.00D-06 GrdErr=5.00D-06 EigMax=2.50D+02 EigMin=1.00D-04
 Number of steps in this run=    146 maximum allowed number of steps=    150.
 GradGradGradGradGradGradGradGradGradGradGradGradGradGradGradGradGradGrad

 Leave Link  103 at Wed Oct 28 00:10:20 2020, MaxMem=  7784628224 cpu:               0.1 elap:               0.0
 (Enter /gpfs/loomis/apps/avx/software/Gaussian/16-C.01_AVX/g16/l202.exe)
                          Input orientation:                          
 ---------------------------------------------------------------------
 Center     Atomic      Atomic             Coordinates (Angstroms)
 Number     Number       Type             X           Y           Z
 ---------------------------------------------------------------------
      1          6           0        1.563540   -3.247970   -0.000018
      2          6           0        1.008344   -1.965633   -0.000023
      3          6           0        1.794146   -0.781294   -0.000026
      4          6           0        3.185717   -0.916255   -0.000029
      5          6           0        3.743148   -2.202834   -0.000024
      6          6           0        2.953343   -3.359690   -0.000017
      7          1           0        0.917403   -4.132475   -0.000014
      8          1           0        3.830326   -0.030674   -0.000033
      9          1           0        4.832325   -2.298850   -0.000024
     10          1           0        3.423360   -4.346544   -0.000012
     11          7           0        1.000679    0.372811   -0.000029
     12         16           0       -0.703523   -1.614113   -0.000025
     13          6           0       -1.339234    1.070088    0.000011
     14          6           0       -2.682035    0.743835    0.000019
     15          6           0       -0.881732    2.475038    0.000036
     16          6           0       -3.657461    1.781463    0.000032
     17          1           0       -3.012726   -0.300055    0.000011
     18          6           0       -1.912950    3.475882    0.000042
     19          6           0       -3.273175    3.122719    0.000039
     20          1           0       -4.717404    1.510840    0.000034
     21          1           0       -1.589589    4.521501    0.000061
     22          1           0       -4.037508    3.903745    0.000045
     23          6           0       -0.327493    0.070629   -0.000021
     24          8           0        0.350902    2.706444    0.000055
     25          1           0        1.125751    1.078220    0.000002
 ---------------------------------------------------------------------
                    Distance matrix (angstroms):
                    1          2          3          4          5
     1  C    0.000000
     2  C    1.397366   0.000000
     3  C    2.477433   1.421318   0.000000
     4  C    2.840485   2.417054   1.398100   0.000000
     5  C    2.417231   2.745072   2.412340   1.402147   0.000000
     6  C    1.394286   2.392993   2.826989   2.454460   1.400753
     7  H    1.095373   2.168749   3.463971   3.935648   3.421747
     8  H    3.935647   3.421644   2.170128   1.095342   2.173909
     9  H    3.403790   3.838472   3.396102   2.150091   1.093401
    10  H    2.160045   3.391318   3.919866   3.438511   2.167431
    11  N    3.664270   2.338457   1.400553   2.536943   3.762325
    12  S    2.794470   1.747586   2.632858   3.951354   4.485475
    13  C    5.203049   3.837542   3.639462   4.941734   6.045050
    14  C    5.827471   4.578222   4.728870   6.098066   7.068652
    15  C    6.223518   4.826173   4.214739   5.295754   6.578146
    16  C    7.249417   5.984185   6.023931   7.355730   8.404977
    17  H    5.443566   4.352373   4.830901   6.228996   7.018718
    18  C    7.569423   6.176087   5.645007   6.729582   8.014940
    19  C    7.998718   6.650018   6.396801   7.617782   8.808536
    20  H    7.880135   6.698512   6.903200   8.267413   9.239714
    21  H    8.384922   6.988002   6.290414   7.236901   8.582236
    22  H    9.083985   7.740170   7.480494   8.683742   9.890851
    23  C    3.819569   2.435328   2.286291   3.649189   4.662484
    24  O    6.076639   4.718108   3.774556   4.600013   5.967273
    25  H    4.348285   3.046117   1.975991   2.867296   4.197151
                    6          7          8          9         10
     6  C    0.000000
     7  H    2.177670   0.000000
     8  H    3.442594   5.030894   0.000000
     9  H    2.157767   4.323054   2.479643   0.000000
    10  H    1.093068   2.515084   4.335015   2.485605   0.000000
    11  N    4.212418   4.506056   2.858269   4.671112   5.304875
    12  S    4.052124   2.994920   4.802402   5.578036   4.949480
    13  C    6.168399   5.670897   5.285454   7.031208   7.212642
    14  C    6.971112   6.060887   6.558255   8.107006   7.949076
    15  C    6.982253   6.848074   5.336860   7.445835   8.066462
    16  C    8.374615   7.476900   7.703946   9.419417   9.364320
    17  H    6.704874   5.489385   6.848351   8.095678   7.602452
    18  C    8.390819   8.117758   6.729127   8.879542   9.469243
    19  C    8.988390   8.378472   7.771976   9.751541  10.031624
    20  H    9.086387   7.974839   8.685617  10.281589  10.029008
    21  H    9.096780   9.009790   7.077978   9.367934  10.186849
    22  H   10.081145   9.440973   8.796730  10.823407  11.123481
    23  C    4.746680   4.383588   4.159052   5.677865   5.794853
    24  O    6.600810   6.862342   4.426986   6.718343   7.693156
    25  H    4.799493   5.214858   2.923075   5.014309   5.891271
                   11         12         13         14         15
    11  N    0.000000
    12  S    2.617666   0.000000
    13  C    2.441595   2.758453   0.000000
    14  C    3.701356   3.078056   1.381867   0.000000
    15  C    2.821848   4.093032   1.477563   2.497630   0.000000
    16  C    4.866474   4.500631   2.424919   1.424124   2.861069
    17  H    4.069418   2.656908   2.162838   1.095017   3.498896
    18  C    4.256557   5.231707   2.473256   2.838234   1.437045
    19  C    5.082108   5.388941   2.820181   2.451232   2.477598
    20  H    5.830230   5.086902   3.406801   2.175092   3.955004
    21  H    4.890922   6.199264   3.460481   3.932455   2.165427
    22  H    6.152302   6.446876   3.912838   3.438363   3.464120
    23  C    1.362114   1.726196   1.422160   2.448892   2.467461
    24  O    2.422407   4.447362   2.352493   3.612554   1.254167
    25  H    0.716411   3.254981   2.464999   3.822440   2.445627
                   16         17         18         19         20
    16  C    0.000000
    17  H    2.179083   0.000000
    18  C    2.431948   3.932837   0.000000
    19  C    1.395222   3.432669   1.405324   0.000000
    20  H    1.093945   2.487021   3.424376   2.164243   0.000000
    21  H    3.432769   5.027199   1.094478   2.188847   4.341348
    22  H    2.156042   4.326906   2.167213   1.092798   2.487620
    23  C    3.743747   2.710697   3.756251   4.241733   4.620122
    24  O    4.113704   4.511433   2.391038   3.647906   5.207417
    25  H    4.834632   4.361953   3.870722   4.850828   5.859149
                   21         22         23         24         25
    21  H    0.000000
    22  H    2.524664   0.000000
    23  C    4.626354   5.334510   0.000000
    24  O    2.657055   4.548810   2.721717   0.000000
    25  H    4.385118   5.885817   1.768377   1.803194   0.000000
 Symmetry turned off by external request.
 Stoichiometry    C13H9NOS
 Framework group  C1[X(C13H9NOS)]
 Deg. of freedom    69
 Full point group                 C1      NOp   1
 Rotational constants (GHZ):           1.4164373           0.2862342           0.2381157
 Leave Link  202 at Wed Oct 28 00:10:20 2020, MaxMem=  7784628224 cpu:               0.1 elap:               0.0
 (Enter /gpfs/loomis/apps/avx/software/Gaussian/16-C.01_AVX/g16/l301.exe)
 Standard basis: CC-pVDZ (5D, 7F)
 Ernie: Thresh=  0.10000D-02 Tol=  0.10000D-05 Strict=F.
 Ernie:  40 primitive shells out of 425 were deleted.
   273 basis functions,   629 primitive gaussians,   289 cartesian basis functions
    59 alpha electrons       59 beta electrons
       nuclear repulsion energy      1103.3970980601 Hartrees.
 IExCor= 4639 DFT=T Ex+Corr=wB97XD ExCW=0 ScaHFX=  1.000000
 ScaDFX=  1.000000  1.000000  1.000000  1.000000 ScalE2=  1.000000  1.000000
 IRadAn=      5 IRanWt=     -1 IRanGd=            0 ICorTp=0 IEmpDi=121
 HFx  wShort=  0.000000 wLong=  0.200000 cFull=  0.222036 cShort=  0.000000 cLong=  0.777964
 DFx  wShort=  0.000000 wLong=  0.200000 cFull=  0.000000 cShort=  0.000000 cLong=  1.000000
 NAtoms=   25 NActive=   25 NUniq=   25 SFac= 1.00D+00 NAtFMM=   60 NAOKFM=F Big=F
 Integral buffers will be    131072 words long.
 Raffenetti 2 integral format.
 Two-electron integral symmetry is turned off.
 R6Disp:  Grimme-D2 Dispersion energy=       -0.0140299766 Hartrees.
 Nuclear repulsion after empirical dispersion term =     1103.3830680835 Hartrees.
 ------------------------------------------------------------------------------
 Polarizable Continuum Model (PCM)
 =================================
 Model                : PCM.
 Atomic radii         : UFF (Universal Force Field).
 Polarization charges : Total charges.
 Charge compensation  : None.
 Solution method      : On-the-fly selection.
 Cavity type          : Scaled VdW (van der Waals Surface) (Alpha=1.100).
 Cavity algorithm     : GePol (No added spheres)
                        Default sphere list used, NSphG=   25.
                        Lebedev-Laikov grids with approx.  5.0 points / Ang**2.
                        Smoothing algorithm: York/Karplus (Gamma=1.0000).
                        Polarization charges: spherical gaussians, with
                                              point-specific exponents (IZeta= 3).
                        Self-potential: point-specific (ISelfS= 7).
                        Self-field    : sphere-specific E.n sum rule (ISelfD= 2).
 1st derivatives      : Analytical E(r).r(x)/FMM algorithm (CHGder, D1EAlg=3).
                        Cavity 1st derivative terms included.
 Solvent              : CarbonTetraChloride, Eps=   2.228000 Eps(inf)=   2.131892
 ------------------------------------------------------------------------------
 GePol: Number of generator spheres                  =      25
 GePol: Total number of spheres                      =      25
 GePol: Number of exposed spheres                    =      25 (100.00%)
 GePol: Number of points                             =    2195
 GePol: Average weight of points                     =       0.12
 GePol: Minimum weight of points                     =   0.10D-11
 GePol: Maximum weight of points                     =    0.20577
 GePol: Number of points with low weight             =     131
 GePol: Fraction of low-weight points (<1% of avg)   =       5.97%
 GePol: Cavity surface area                          =    271.523 Ang**2
 GePol: Cavity volume                                =    291.489 Ang**3
 Leave Link  301 at Wed Oct 28 00:10:20 2020, MaxMem=  7784628224 cpu:               0.8 elap:               0.1
 (Enter /gpfs/loomis/apps/avx/software/Gaussian/16-C.01_AVX/g16/l302.exe)
 NPDir=0 NMtPBC=     1 NCelOv=     1 NCel=       1 NClECP=     1 NCelD=      1
         NCelK=      1 NCelE2=     1 NClLst=     1 CellRange=     0.0.
 One-electron integrals computed using PRISM.
 NBasis=   273 RedAO= T EigKep=  3.08D-04  NBF=   273
 NBsUse=   273 1.00D-06 EigRej= -1.00D+00 NBFU=   273
 Precomputing XC quadrature grid using
 IXCGrd= 4 IRadAn=           5 IRanWt=          -1 IRanGd=           0 AccXCQ= 0.00D+00.
 Generated NRdTot=       0 NPtTot=           0 NUsed=           0 NTot=          32
 NSgBfM=   288   288   288   288   288 MxSgAt=    25 MxSgA2=    25.
 Leave Link  302 at Wed Oct 28 00:10:21 2020, MaxMem=  7784628224 cpu:               2.5 elap:               0.3
 (Enter /gpfs/loomis/apps/avx/software/Gaussian/16-C.01_AVX/g16/l303.exe)
 DipDrv:  MaxL=1.
 Leave Link  303 at Wed Oct 28 00:10:21 2020, MaxMem=  7784628224 cpu:               0.4 elap:               0.1
 (Enter /gpfs/loomis/apps/avx/software/Gaussian/16-C.01_AVX/g16/l401.exe)
 ExpMin= 1.22D-01 ExpMax= 1.11D+05 ExpMxC= 1.07D+03 IAcc=3 IRadAn=         5 AccDes= 0.00D+00
 Harris functional with IExCor= 4639 and IRadAn=       5 diagonalized for initial guess.
 HarFok:  IExCor= 4639 AccDes= 0.00D+00 IRadAn=         5 IDoV= 1 UseB2=F ITyADJ=14
 ICtDFT=  3500011 ScaDFX=  1.000000  1.000000  1.000000  1.000000
 FoFCou: FMM=F IPFlag=           0 FMFlag=      100000 FMFlg1=           0
         NFxFlg=           0 DoJE=T BraDBF=F KetDBF=T FulRan=T
         wScrn=  0.000000 ICntrl=       500 IOpCl=  0 I1Cent=   200000004 NGrid=           0
         NMat0=    1 NMatS0=      1 NMatT0=    0 NMatD0=    1 NMtDS0=    0 NMtDT0=    0
 Symmetry not used in FoFCou.
 Harris En= -994.276477116320    
 JPrj=0 DoOrth=F DoCkMO=F.
 Leave Link  401 at Wed Oct 28 00:10:22 2020, MaxMem=  7784628224 cpu:              13.8 elap:               1.4
 (Enter /gpfs/loomis/apps/avx/software/Gaussian/16-C.01_AVX/g16/l502.exe)
 Two-electron integral symmetry not used.
 Closed shell SCF:
 Using DIIS extrapolation, IDIIS=  1040.
 NGot=  7784628224 LenX=  7784455381 LenY=  7784371419
 Requested convergence on RMS density matrix=1.00D-08 within 128 cycles.
 Requested convergence on MAX density matrix=1.00D-06.
 Requested convergence on             energy=1.00D-06.
 No special actions if energy rises.
 Fock matrices will be formed incrementally for  20 cycles.

 Cycle   1  Pass 1  IDiag  1:
 FoFJK:  IHMeth= 1 ICntrl=       0 DoSepK=T KAlg= 0 I1Cent=           0 FoldK=F
 IRaf=         1 NMat=       1 IRICut=       1 DoRegI=T DoRafI=F ISym2E= 0 IDoP0=0 IntGTp=1.
 FoFCou: FMM=F IPFlag=           0 FMFlag=      100000 FMFlg1=           0
         NFxFlg=           0 DoJE=T BraDBF=F KetDBF=F FulRan=T
         wScrn=  0.000000 ICntrl=       500 IOpCl=  0 I1Cent=           0 NGrid=           0
         NMat0=    1 NMatS0=      1 NMatT0=    0 NMatD0=    1 NMtDS0=    0 NMtDT0=    0
 Symmetry not used in FoFCou.
 Inv3:  Mode=1 IEnd=    14454075.
 Iteration    1 A*A^-1 deviation from unit magnitude is 4.33D-15 for   2179.
 Iteration    1 A*A^-1 deviation from orthogonality  is 2.02D-15 for   2175   2015.
 Iteration    1 A^-1*A deviation from unit magnitude is 4.33D-15 for   2179.
 Iteration    1 A^-1*A deviation from orthogonality  is 1.97D-15 for   2175   2015.
 E= -1028.39175909917    
 DIIS: error= 4.51D-02 at cycle   1 NSaved=   1.
 NSaved= 1 IEnMin= 1 EnMin= -1028.39175909917     IErMin= 1 ErrMin= 4.51D-02
 ErrMax= 4.51D-02  0.00D+00 EMaxC= 1.00D-01 BMatC= 3.92D-01 BMatP= 3.92D-01
 IDIUse=3 WtCom= 5.49D-01 WtEn= 4.51D-01
 Coeff-Com:  0.100D+01
 Coeff-En:   0.100D+01
 Coeff:      0.100D+01
 Gap=     0.299 Goal=   None    Shift=    0.000
 GapD=    0.299 DampG=1.000 DampE=0.500 DampFc=0.5000 IDamp=-1.
 Damping current iteration by 5.00D-01
 RMSDP=3.66D-03 MaxDP=2.53D-01              OVMax= 2.08D-01

 Cycle   2  Pass 1  IDiag  1:
 RMSU=  1.82D-03    CP:  9.94D-01
 E= -1028.51292395566     Delta-E=       -0.121164856494 Rises=F Damp=T
 DIIS: error= 1.19D-02 at cycle   2 NSaved=   2.
 NSaved= 2 IEnMin= 2 EnMin= -1028.51292395566     IErMin= 2 ErrMin= 1.19D-02
 ErrMax= 1.19D-02  0.00D+00 EMaxC= 1.00D-01 BMatC= 5.82D-02 BMatP= 3.92D-01
 IDIUse=3 WtCom= 8.81D-01 WtEn= 1.19D-01
 Coeff-Com: -0.293D+00 0.129D+01
 Coeff-En:   0.000D+00 0.100D+01
 Coeff:     -0.258D+00 0.126D+01
 Gap=     0.371 Goal=   None    Shift=    0.000
 RMSDP=1.16D-03 MaxDP=2.76D-02 DE=-1.21D-01 OVMax= 1.44D-01

 Cycle   3  Pass 1  IDiag  1:
 RMSU=  1.12D-03    CP:  9.93D-01  1.16D+00
 E= -1028.62233748705     Delta-E=       -0.109413531383 Rises=F Damp=F
 DIIS: error= 5.88D-03 at cycle   3 NSaved=   3.
 NSaved= 3 IEnMin= 3 EnMin= -1028.62233748705     IErMin= 3 ErrMin= 5.88D-03
 ErrMax= 5.88D-03  0.00D+00 EMaxC= 1.00D-01 BMatC= 1.45D-02 BMatP= 5.82D-02
 IDIUse=3 WtCom= 9.41D-01 WtEn= 5.88D-02
 Coeff-Com: -0.203D+00 0.493D+00 0.709D+00
 Coeff-En:   0.000D+00 0.000D+00 0.100D+01
 Coeff:     -0.191D+00 0.464D+00 0.727D+00
 Gap=     0.234 Goal=   None    Shift=    0.000
 RMSDP=5.33D-04 MaxDP=2.00D-02 DE=-1.09D-01 OVMax= 4.69D-02

 Cycle   4  Pass 1  IDiag  1:
 RMSU=  4.19D-04    CP:  9.91D-01  1.32D+00  8.59D-01
 E= -1028.63677249553     Delta-E=       -0.014435008488 Rises=F Damp=F
 DIIS: error= 1.91D-03 at cycle   4 NSaved=   4.
 NSaved= 4 IEnMin= 4 EnMin= -1028.63677249553     IErMin= 4 ErrMin= 1.91D-03
 ErrMax= 1.91D-03  0.00D+00 EMaxC= 1.00D-01 BMatC= 1.77D-03 BMatP= 1.45D-02
 IDIUse=3 WtCom= 9.81D-01 WtEn= 1.91D-02
 Coeff-Com: -0.718D-01 0.142D+00 0.340D+00 0.590D+00
 Coeff-En:   0.000D+00 0.000D+00 0.000D+00 0.100D+01
 Coeff:     -0.704D-01 0.139D+00 0.334D+00 0.597D+00
 Gap=     0.236 Goal=   None    Shift=    0.000
 RMSDP=1.68D-04 MaxDP=8.70D-03 DE=-1.44D-02 OVMax= 1.25D-02

 Cycle   5  Pass 1  IDiag  1:
 RMSU=  1.12D-04    CP:  9.91D-01  1.33D+00  9.29D-01  7.73D-01
 E= -1028.63869072446     Delta-E=       -0.001918228926 Rises=F Damp=F
 DIIS: error= 5.28D-04 at cycle   5 NSaved=   5.
 NSaved= 5 IEnMin= 5 EnMin= -1028.63869072446     IErMin= 5 ErrMin= 5.28D-04
 ErrMax= 5.28D-04  0.00D+00 EMaxC= 1.00D-01 BMatC= 6.43D-05 BMatP= 1.77D-03
 IDIUse=3 WtCom= 9.95D-01 WtEn= 5.28D-03
 Coeff-Com: -0.839D-03-0.472D-02 0.293D-01 0.163D+00 0.813D+00
 Coeff-En:   0.000D+00 0.000D+00 0.000D+00 0.000D+00 0.100D+01
 Coeff:     -0.835D-03-0.469D-02 0.292D-01 0.162D+00 0.814D+00
 Gap=     0.237 Goal=   None    Shift=    0.000
 RMSDP=6.33D-05 MaxDP=2.08D-03 DE=-1.92D-03 OVMax= 6.74D-03

 Cycle   6  Pass 1  IDiag  1:
 RMSU=  4.17D-05    CP:  9.90D-01  1.33D+00  9.46D-01  8.70D-01  1.13D+00
 E= -1028.63883924220     Delta-E=       -0.000148517738 Rises=F Damp=F
 DIIS: error= 2.97D-04 at cycle   6 NSaved=   6.
 NSaved= 6 IEnMin= 6 EnMin= -1028.63883924220     IErMin= 6 ErrMin= 2.97D-04
 ErrMax= 2.97D-04  0.00D+00 EMaxC= 1.00D-01 BMatC= 1.22D-05 BMatP= 6.43D-05
 IDIUse=3 WtCom= 9.97D-01 WtEn= 2.97D-03
 Coeff-Com:  0.180D-01-0.367D-01-0.685D-01-0.808D-01 0.213D+00 0.955D+00
 Coeff-En:   0.000D+00 0.000D+00 0.000D+00 0.000D+00 0.000D+00 0.100D+01
 Coeff:      0.179D-01-0.366D-01-0.683D-01-0.806D-01 0.213D+00 0.955D+00
 Gap=     0.238 Goal=   None    Shift=    0.000
 RMSDP=4.18D-05 MaxDP=2.06D-03 DE=-1.49D-04 OVMax= 5.32D-03

 Cycle   7  Pass 1  IDiag  1:
 RMSU=  2.10D-05    CP:  9.90D-01  1.34D+00  9.60D-01  9.09D-01  1.35D+00
                    CP:  1.30D+00
 E= -1028.63888430630     Delta-E=       -0.000045064104 Rises=F Damp=F
 DIIS: error= 9.13D-05 at cycle   7 NSaved=   7.
 NSaved= 7 IEnMin= 7 EnMin= -1028.63888430630     IErMin= 7 ErrMin= 9.13D-05
 ErrMax= 9.13D-05  0.00D+00 EMaxC= 1.00D-01 BMatC= 3.46D-06 BMatP= 1.22D-05
 IDIUse=1 WtCom= 1.00D+00 WtEn= 0.00D+00
 Coeff-Com:  0.804D-02-0.153D-01-0.325D-01-0.593D-01-0.268D-01 0.447D+00
 Coeff-Com:  0.678D+00
 Coeff:      0.804D-02-0.153D-01-0.325D-01-0.593D-01-0.268D-01 0.447D+00
 Coeff:      0.678D+00
 Gap=     0.238 Goal=   None    Shift=    0.000
 RMSDP=1.58D-05 MaxDP=6.01D-04 DE=-4.51D-05 OVMax= 1.70D-03

 Cycle   8  Pass 1  IDiag  1:
 RMSU=  8.92D-06    CP:  9.90D-01  1.33D+00  9.61D-01  9.18D-01  1.40D+00
                    CP:  1.55D+00  1.09D+00
 E= -1028.63889195354     Delta-E=       -0.000007647235 Rises=F Damp=F
 DIIS: error= 6.64D-05 at cycle   8 NSaved=   8.
 NSaved= 8 IEnMin= 8 EnMin= -1028.63889195354     IErMin= 8 ErrMin= 6.64D-05
 ErrMax= 6.64D-05  0.00D+00 EMaxC= 1.00D-01 BMatC= 4.21D-07 BMatP= 3.46D-06
 IDIUse=1 WtCom= 1.00D+00 WtEn= 0.00D+00
 Coeff-Com: -0.141D-02 0.316D-02 0.633D-02 0.364D-03-0.451D-01-0.759D-01
 Coeff-Com:  0.166D+00 0.947D+00
 Coeff:     -0.141D-02 0.316D-02 0.633D-02 0.364D-03-0.451D-01-0.759D-01
 Coeff:      0.166D+00 0.947D+00
 Gap=     0.238 Goal=   None    Shift=    0.000
 RMSDP=8.62D-06 MaxDP=2.27D-04 DE=-7.65D-06 OVMax= 1.46D-03

 Cycle   9  Pass 1  IDiag  1:
 RMSU=  3.46D-06    CP:  9.90D-01  1.33D+00  9.61D-01  9.19D-01  1.42D+00
                    CP:  1.67D+00  1.35D+00  1.20D+00
 E= -1028.63889397904     Delta-E=       -0.000002025502 Rises=F Damp=F
 DIIS: error= 2.05D-05 at cycle   9 NSaved=   9.
 NSaved= 9 IEnMin= 9 EnMin= -1028.63889397904     IErMin= 9 ErrMin= 2.05D-05
 ErrMax= 2.05D-05  0.00D+00 EMaxC= 1.00D-01 BMatC= 1.52D-07 BMatP= 4.21D-07
 IDIUse=1 WtCom= 1.00D+00 WtEn= 0.00D+00
 Coeff-Com: -0.162D-02 0.320D-02 0.723D-02 0.854D-02-0.126D-01-0.103D+00
 Coeff-Com: -0.789D-01 0.382D+00 0.795D+00
 Coeff:     -0.162D-02 0.320D-02 0.723D-02 0.854D-02-0.126D-01-0.103D+00
 Coeff:     -0.789D-01 0.382D+00 0.795D+00
 Gap=     0.238 Goal=   None    Shift=    0.000
 RMSDP=4.48D-06 MaxDP=1.51D-04 DE=-2.03D-06 OVMax= 6.43D-04

 Cycle  10  Pass 1  IDiag  1:
 RMSU=  1.64D-06    CP:  9.90D-01  1.33D+00  9.61D-01  9.19D-01  1.43D+00
                    CP:  1.73D+00  1.44D+00  1.46D+00  1.19D+00
 E= -1028.63889445759     Delta-E=       -0.000000478548 Rises=F Damp=F
 DIIS: error= 1.15D-05 at cycle  10 NSaved=  10.
 NSaved=10 IEnMin=10 EnMin= -1028.63889445759     IErMin=10 ErrMin= 1.15D-05
 ErrMax= 1.15D-05  0.00D+00 EMaxC= 1.00D-01 BMatC= 2.17D-08 BMatP= 1.52D-07
 IDIUse=1 WtCom= 1.00D+00 WtEn= 0.00D+00
 Coeff-Com:  0.570D-04-0.190D-03 0.141D-03 0.150D-02 0.860D-02-0.815D-02
 Coeff-Com: -0.785D-01-0.892D-01 0.248D+00 0.918D+00
 Coeff:      0.570D-04-0.190D-03 0.141D-03 0.150D-02 0.860D-02-0.815D-02
 Coeff:     -0.785D-01-0.892D-01 0.248D+00 0.918D+00
 Gap=     0.238 Goal=   None    Shift=    0.000
 RMSDP=2.17D-06 MaxDP=5.37D-05 DE=-4.79D-07 OVMax= 3.80D-04

 Cycle  11  Pass 1  IDiag  1:
 RMSU=  6.24D-07    CP:  9.90D-01  1.33D+00  9.62D-01  9.19D-01  1.44D+00
                    CP:  1.76D+00  1.48D+00  1.57D+00  1.50D+00  1.22D+00
 E= -1028.63889456066     Delta-E=       -0.000000103075 Rises=F Damp=F
 DIIS: error= 3.99D-06 at cycle  11 NSaved=  11.
 NSaved=11 IEnMin=11 EnMin= -1028.63889456066     IErMin=11 ErrMin= 3.99D-06
 ErrMax= 3.99D-06  0.00D+00 EMaxC= 1.00D-01 BMatC= 4.27D-09 BMatP= 2.17D-08
 IDIUse=1 WtCom= 1.00D+00 WtEn= 0.00D+00
 Coeff-Com:  0.280D-03-0.576D-03-0.103D-02-0.921D-03 0.518D-02 0.133D-01
 Coeff-Com: -0.169D-01-0.762D-01-0.589D-01 0.277D+00 0.859D+00
 Coeff:      0.280D-03-0.576D-03-0.103D-02-0.921D-03 0.518D-02 0.133D-01
 Coeff:     -0.169D-01-0.762D-01-0.589D-01 0.277D+00 0.859D+00
 Gap=     0.238 Goal=   None    Shift=    0.000
 RMSDP=7.71D-07 MaxDP=2.26D-05 DE=-1.03D-07 OVMax= 1.21D-04

 Cycle  12  Pass 1  IDiag  1:
 RMSU=  2.47D-07    CP:  9.90D-01  1.33D+00  9.62D-01  9.20D-01  1.44D+00
                    CP:  1.76D+00  1.49D+00  1.61D+00  1.60D+00  1.46D+00
                    CP:  1.19D+00
 E= -1028.63889457443     Delta-E=       -0.000000013772 Rises=F Damp=F
 DIIS: error= 1.40D-06 at cycle  12 NSaved=  12.
 NSaved=12 IEnMin=12 EnMin= -1028.63889457443     IErMin=12 ErrMin= 1.40D-06
 ErrMax= 1.40D-06  0.00D+00 EMaxC= 1.00D-01 BMatC= 6.33D-10 BMatP= 4.27D-09
 IDIUse=1 WtCom= 1.00D+00 WtEn= 0.00D+00
 Coeff-Com:  0.119D-03-0.229D-03-0.500D-03-0.866D-03 0.517D-03 0.785D-02
 Coeff-Com:  0.831D-02-0.102D-01-0.791D-01-0.727D-01 0.292D+00 0.855D+00
 Coeff:      0.119D-03-0.229D-03-0.500D-03-0.866D-03 0.517D-03 0.785D-02
 Coeff:      0.831D-02-0.102D-01-0.791D-01-0.727D-01 0.292D+00 0.855D+00
 Gap=     0.238 Goal=   None    Shift=    0.000
 RMSDP=3.23D-07 MaxDP=9.37D-06 DE=-1.38D-08 OVMax= 5.06D-05

 Cycle  13  Pass 1  IDiag  1:
 RMSU=  9.39D-08    CP:  9.90D-01  1.33D+00  9.62D-01  9.20D-01  1.44D+00
                    CP:  1.76D+00  1.49D+00  1.63D+00  1.65D+00  1.55D+00
                    CP:  1.42D+00  1.09D+00
 E= -1028.63889457668     Delta-E=       -0.000000002245 Rises=F Damp=F
 DIIS: error= 5.44D-07 at cycle  13 NSaved=  13.
 NSaved=13 IEnMin=13 EnMin= -1028.63889457668     IErMin=13 ErrMin= 5.44D-07
 ErrMax= 5.44D-07  0.00D+00 EMaxC= 1.00D-01 BMatC= 6.05D-11 BMatP= 6.33D-10
 IDIUse=1 WtCom= 1.00D+00 WtEn= 0.00D+00
 Coeff-Com: -0.140D-04 0.304D-04 0.481D-04-0.424D-04-0.308D-03 0.499D-04
 Coeff-Com:  0.249D-02 0.674D-02-0.742D-02-0.390D-01-0.656D-01 0.159D+00
 Coeff-Com:  0.944D+00
 Coeff:     -0.140D-04 0.304D-04 0.481D-04-0.424D-04-0.308D-03 0.499D-04
 Coeff:      0.249D-02 0.674D-02-0.742D-02-0.390D-01-0.656D-01 0.159D+00
 Coeff:      0.944D+00
 Gap=     0.238 Goal=   None    Shift=    0.000
 RMSDP=9.08D-08 MaxDP=2.24D-06 DE=-2.24D-09 OVMax= 1.09D-05

 Cycle  14  Pass 1  IDiag  1:
 RMSU=  3.35D-08    CP:  9.90D-01  1.33D+00  9.62D-01  9.20D-01  1.44D+00
                    CP:  1.76D+00  1.49D+00  1.63D+00  1.66D+00  1.58D+00
                    CP:  1.48D+00  1.25D+00  1.20D+00
 E= -1028.63889457687     Delta-E=       -0.000000000187 Rises=F Damp=F
 DIIS: error= 1.65D-07 at cycle  14 NSaved=  14.
 NSaved=14 IEnMin=14 EnMin= -1028.63889457687     IErMin=14 ErrMin= 1.65D-07
 ErrMax= 1.65D-07  0.00D+00 EMaxC= 1.00D-01 BMatC= 7.17D-12 BMatP= 6.05D-11
 IDIUse=1 WtCom= 1.00D+00 WtEn= 0.00D+00
 Coeff-Com: -0.139D-04 0.276D-04 0.572D-04 0.595D-04-0.132D-03-0.674D-03
 Coeff-Com: -0.158D-03 0.309D-02 0.498D-02-0.330D-02-0.441D-01-0.349D-01
 Coeff-Com:  0.288D+00 0.787D+00
 Coeff:     -0.139D-04 0.276D-04 0.572D-04 0.595D-04-0.132D-03-0.674D-03
 Coeff:     -0.158D-03 0.309D-02 0.498D-02-0.330D-02-0.441D-01-0.349D-01
 Coeff:      0.288D+00 0.787D+00
 Gap=     0.238 Goal=   None    Shift=    0.000
 RMSDP=2.01D-08 MaxDP=4.54D-07 DE=-1.87D-10 OVMax= 2.62D-06

 Cycle  15  Pass 1  IDiag  1:
 RMSU=  1.14D-08    CP:  9.90D-01  1.33D+00  9.62D-01  9.20D-01  1.44D+00
                    CP:  1.76D+00  1.49D+00  1.63D+00  1.66D+00  1.58D+00
                    CP:  1.49D+00  1.28D+00  1.33D+00  1.13D+00
 E= -1028.63889457688     Delta-E=       -0.000000000016 Rises=F Damp=F
 DIIS: error= 7.27D-08 at cycle  15 NSaved=  15.
 NSaved=15 IEnMin=15 EnMin= -1028.63889457688     IErMin=15 ErrMin= 7.27D-08
 ErrMax= 7.27D-08  0.00D+00 EMaxC= 1.00D-01 BMatC= 1.35D-12 BMatP= 7.17D-12
 IDIUse=1 WtCom= 1.00D+00 WtEn= 0.00D+00
 Coeff-Com: -0.248D-05 0.445D-05 0.130D-04 0.339D-04 0.510D-05-0.300D-03
 Coeff-Com: -0.637D-03-0.203D-03 0.346D-02 0.739D-02-0.177D-02-0.533D-01
 Coeff-Com: -0.918D-01 0.249D+00 0.888D+00
 Coeff:     -0.248D-05 0.445D-05 0.130D-04 0.339D-04 0.510D-05-0.300D-03
 Coeff:     -0.637D-03-0.203D-03 0.346D-02 0.739D-02-0.177D-02-0.533D-01
 Coeff:     -0.918D-01 0.249D+00 0.888D+00
 Gap=     0.238 Goal=   None    Shift=    0.000
 RMSDP=1.19D-08 MaxDP=2.98D-07 DE=-1.59D-11 OVMax= 1.37D-06

 Cycle  16  Pass 1  IDiag  1:
 RMSU=  4.97D-09    CP:  9.90D-01  1.33D+00  9.62D-01  9.20D-01  1.44D+00
                    CP:  1.76D+00  1.49D+00  1.63D+00  1.66D+00  1.58D+00
                    CP:  1.49D+00  1.30D+00  1.39D+00  1.32D+00  1.18D+00
 E= -1028.63889457689     Delta-E=       -0.000000000014 Rises=F Damp=F
 DIIS: error= 2.59D-08 at cycle  16 NSaved=  16.
 NSaved=16 IEnMin=16 EnMin= -1028.63889457689     IErMin=16 ErrMin= 2.59D-08
 ErrMax= 2.59D-08  0.00D+00 EMaxC= 1.00D-01 BMatC= 1.39D-13 BMatP= 1.35D-12
 IDIUse=1 WtCom= 1.00D+00 WtEn= 0.00D+00
 Coeff-Com:  0.662D-06-0.144D-05-0.191D-05 0.281D-05 0.107D-04-0.178D-04
 Coeff-Com: -0.146D-03-0.339D-03 0.313D-03 0.202D-02 0.418D-02-0.109D-01
 Coeff-Com: -0.466D-01-0.232D-01 0.241D+00 0.834D+00
 Coeff:      0.662D-06-0.144D-05-0.191D-05 0.281D-05 0.107D-04-0.178D-04
 Coeff:     -0.146D-03-0.339D-03 0.313D-03 0.202D-02 0.418D-02-0.109D-01
 Coeff:     -0.466D-01-0.232D-01 0.241D+00 0.834D+00
 Gap=     0.238 Goal=   None    Shift=    0.000
 RMSDP=3.50D-09 MaxDP=1.14D-07 DE=-1.36D-11 OVMax= 4.82D-07

 Error on total polarization charges =  0.00861
 SCF Done:  E(RwB97XD) =  -1028.63889458     A.U. after   16 cycles
            NFock= 16  Conv=0.35D-08     -V/T= 2.0040
 KE= 1.024566357399D+03 PE=-4.618795165236D+03 EE= 1.462206845176D+03
 Leave Link  502 at Wed Oct 28 00:11:51 2020, MaxMem=  7784628224 cpu:             880.1 elap:              88.7
 (Enter /gpfs/loomis/apps/avx/software/Gaussian/16-C.01_AVX/g16/l601.exe)
 Copying SCF densities to generalized density rwf, IOpCl= 0 IROHF=0.

 **********************************************************************

            Population analysis using the SCF Density.

 **********************************************************************

 Alpha  occ. eigenvalues --  -89.10488 -19.20388 -14.50774 -10.41593 -10.38337
 Alpha  occ. eigenvalues --  -10.36499 -10.35499 -10.33575 -10.33378 -10.32813
 Alpha  occ. eigenvalues --  -10.32638 -10.31511 -10.30860 -10.30400 -10.29339
 Alpha  occ. eigenvalues --  -10.28509  -8.12586  -6.07448  -6.07087  -6.06599
 Alpha  occ. eigenvalues --   -1.15568  -1.09194  -0.99677  -0.96496  -0.93557
 Alpha  occ. eigenvalues --   -0.89379  -0.87504  -0.83657  -0.81255  -0.78531
 Alpha  occ. eigenvalues --   -0.75309  -0.72329  -0.69417  -0.67911  -0.65928
 Alpha  occ. eigenvalues --   -0.60916  -0.59713  -0.57034  -0.56379  -0.56192
 Alpha  occ. eigenvalues --   -0.55093  -0.53805  -0.53088  -0.50351  -0.49271
 Alpha  occ. eigenvalues --   -0.48819  -0.48677  -0.47051  -0.45534  -0.44960
 Alpha  occ. eigenvalues --   -0.44001  -0.43158  -0.42668  -0.40033  -0.36807
 Alpha  occ. eigenvalues --   -0.33892  -0.31570  -0.31186  -0.25783
 Alpha virt. eigenvalues --   -0.01957   0.03441   0.05138   0.06343   0.09449
 Alpha virt. eigenvalues --    0.10676   0.14163   0.14865   0.16713   0.17357
 Alpha virt. eigenvalues --    0.18692   0.19978   0.20878   0.21270   0.23108
 Alpha virt. eigenvalues --    0.23453   0.24471   0.25807   0.27774   0.30066
 Alpha virt. eigenvalues --    0.30598   0.34072   0.35449   0.35533   0.36591
 Alpha virt. eigenvalues --    0.37588   0.39280   0.40161   0.41629   0.44739
 Alpha virt. eigenvalues --    0.46957   0.48363   0.50708   0.51280   0.51709
 Alpha virt. eigenvalues --    0.52620   0.52736   0.53082   0.54142   0.55334
 Alpha virt. eigenvalues --    0.56256   0.56500   0.56514   0.57125   0.57628
 Alpha virt. eigenvalues --    0.58052   0.58836   0.59474   0.59613   0.60677
 Alpha virt. eigenvalues --    0.61283   0.61557   0.62389   0.62823   0.63107
 Alpha virt. eigenvalues --    0.64743   0.66697   0.67018   0.68659   0.69833
 Alpha virt. eigenvalues --    0.70433   0.70688   0.71904   0.72605   0.73001
 Alpha virt. eigenvalues --    0.74282   0.75403   0.75786   0.77416   0.78399
 Alpha virt. eigenvalues --    0.78425   0.79962   0.80854   0.81890   0.83893
 Alpha virt. eigenvalues --    0.85805   0.89797   0.91412   0.91565   0.92771
 Alpha virt. eigenvalues --    0.94214   0.94402   0.96285   0.97148   0.98277
 Alpha virt. eigenvalues --    0.99084   0.99314   1.00641   1.00992   1.01273
 Alpha virt. eigenvalues --    1.02687   1.05247   1.05655   1.06269   1.07257
 Alpha virt. eigenvalues --    1.08707   1.09784   1.09902   1.10649   1.11128
 Alpha virt. eigenvalues --    1.12561   1.13409   1.14111   1.14456   1.15245
 Alpha virt. eigenvalues --    1.17194   1.19543   1.20009   1.22473   1.24197
 Alpha virt. eigenvalues --    1.25985   1.27780   1.31353   1.33301   1.34154
 Alpha virt. eigenvalues --    1.35265   1.36619   1.38499   1.41185   1.45455
 Alpha virt. eigenvalues --    1.49046   1.49547   1.53005   1.54475   1.55127
 Alpha virt. eigenvalues --    1.55916   1.57106   1.57302   1.57662   1.59449
 Alpha virt. eigenvalues --    1.60553   1.61653   1.62513   1.65225   1.67786
 Alpha virt. eigenvalues --    1.68316   1.69991   1.70711   1.71531   1.71860
 Alpha virt. eigenvalues --    1.72668   1.73546   1.73562   1.75004   1.75386
 Alpha virt. eigenvalues --    1.77917   1.79207   1.80256   1.81660   1.81826
 Alpha virt. eigenvalues --    1.83787   1.84323   1.84528   1.85274   1.85907
 Alpha virt. eigenvalues --    1.87619   1.89845   1.91325   1.91537   1.92022
 Alpha virt. eigenvalues --    1.94577   1.94598   1.95440   1.96663   1.98638
 Alpha virt. eigenvalues --    2.00102   2.00287   2.02928   2.04727   2.05302
 Alpha virt. eigenvalues --    2.06787   2.08262   2.09822   2.11223   2.16350
 Alpha virt. eigenvalues --    2.17301   2.19480   2.22354   2.23896   2.26691
 Alpha virt. eigenvalues --    2.27349   2.29423   2.34508   2.37398   2.38358
 Alpha virt. eigenvalues --    2.41494   2.42588   2.45961   2.48256   2.49423
 Alpha virt. eigenvalues --    2.51316   2.55519   2.61075   2.65224   2.67291
 Alpha virt. eigenvalues --    2.69166   2.73265   2.73729   2.78353   2.80612
 Alpha virt. eigenvalues --    2.81071   2.81263   2.83348   2.88278   2.92791
 Alpha virt. eigenvalues --    2.94552   3.05374   3.18178   3.31750   3.49992
 Alpha virt. eigenvalues --    3.52433   3.58804   3.69677   4.42603
          Condensed to atoms (all electrons):
               1          2          3          4          5          6
     1  C    4.746186   0.485386   0.012142  -0.054639  -0.010999   0.501943
     2  C    0.485386   5.366317   0.262477  -0.057392  -0.077166  -0.001190
     3  C    0.012142   0.262477   4.950866   0.515084  -0.000050  -0.069320
     4  C   -0.054639  -0.057392   0.515084   4.805957   0.510894  -0.010074
     5  C   -0.010999  -0.077166  -0.000050   0.510894   4.737744   0.499317
     6  C    0.501943  -0.001190  -0.069320  -0.010074   0.499317   4.736556
     7  H    0.404360  -0.039053   0.009327  -0.000678   0.008024  -0.039287
     8  H   -0.000559   0.010476  -0.027925   0.395688  -0.040625   0.007303
     9  H    0.008844  -0.000546   0.008230  -0.038019   0.405570  -0.043805
    10  H   -0.042843   0.009340  -0.000505   0.008323  -0.041741   0.407893
    11  N    0.003389  -0.033024   0.395887  -0.052801   0.001990   0.000365
    12  S   -0.071808   0.335110  -0.138863   0.004015   0.000044   0.004774
    13  C   -0.000273  -0.001406   0.016745  -0.000066   0.000016  -0.000000
    14  C   -0.000011   0.000070   0.000537   0.000009  -0.000000  -0.000000
    15  C    0.000005  -0.000187  -0.000022   0.000004  -0.000001   0.000000
    16  C    0.000000  -0.000006   0.000002  -0.000000   0.000000   0.000000
    17  H   -0.000012   0.000218   0.000008   0.000001   0.000000   0.000000
    18  C    0.000000   0.000011  -0.000036  -0.000000  -0.000000  -0.000000
    19  C   -0.000000   0.000000   0.000002   0.000000  -0.000000   0.000000
    20  H   -0.000000  -0.000000  -0.000000  -0.000000  -0.000000  -0.000000
    21  H   -0.000000   0.000000  -0.000001  -0.000000  -0.000000   0.000000
    22  H    0.000000  -0.000000  -0.000000  -0.000000   0.000000  -0.000000
    23  C    0.003332  -0.054269  -0.095918   0.003444   0.000437  -0.000457
    24  O    0.000001  -0.000167  -0.000508   0.000063   0.000001  -0.000000
    25  H    0.000316   0.021892  -0.056657  -0.017291  -0.000517  -0.000002
               7          8          9         10         11         12
     1  C    0.404360  -0.000559   0.008844  -0.042843   0.003389  -0.071808
     2  C   -0.039053   0.010476  -0.000546   0.009340  -0.033024   0.335110
     3  C    0.009327  -0.027925   0.008230  -0.000505   0.395887  -0.138863
     4  C   -0.000678   0.395688  -0.038019   0.008323  -0.052801   0.004015
     5  C    0.008024  -0.040625   0.405570  -0.041741   0.001990   0.000044
     6  C   -0.039287   0.007303  -0.043805   0.407893   0.000365   0.004774
     7  H    0.646352   0.000026  -0.000147  -0.010885  -0.000092  -0.007995
     8  H    0.000026   0.635642  -0.011926  -0.000102  -0.005158  -0.000243
     9  H   -0.000147  -0.011926   0.653600  -0.011978  -0.000089   0.000019
    10  H   -0.010885  -0.000102  -0.011978   0.653142   0.000006  -0.000150
    11  N   -0.000092  -0.005158  -0.000089   0.000006   5.697958  -0.044138
    12  S   -0.007995  -0.000243   0.000019  -0.000150  -0.044138  15.466308
    13  C   -0.000001   0.000035  -0.000000  -0.000000  -0.014791  -0.076937
    14  C    0.000001   0.000001   0.000000  -0.000000   0.004177  -0.011180
    15  C   -0.000000  -0.000009   0.000000   0.000000  -0.010174   0.005412
    16  C    0.000000   0.000000  -0.000000  -0.000000  -0.000075   0.000388
    17  H    0.000001   0.000000   0.000000  -0.000000   0.000255   0.008143
    18  C    0.000000  -0.000000   0.000000  -0.000000  -0.000541  -0.000168
    19  C   -0.000000   0.000000  -0.000000   0.000000   0.000013   0.000017
    20  H    0.000000  -0.000000   0.000000   0.000000   0.000001   0.000010
    21  H   -0.000000   0.000000  -0.000000   0.000000   0.000002   0.000004
    22  H    0.000000  -0.000000  -0.000000  -0.000000  -0.000000  -0.000000
    23  C    0.000287  -0.000603   0.000007   0.000005   0.494218   0.301506
    24  O    0.000000  -0.000115   0.000000  -0.000000  -0.020150   0.000068
    25  H    0.000009   0.000815  -0.000014  -0.000000   0.365226   0.010615
              13         14         15         16         17         18
     1  C   -0.000273  -0.000011   0.000005   0.000000  -0.000012   0.000000
     2  C   -0.001406   0.000070  -0.000187  -0.000006   0.000218   0.000011
     3  C    0.016745   0.000537  -0.000022   0.000002   0.000008  -0.000036
     4  C   -0.000066   0.000009   0.000004  -0.000000   0.000001  -0.000000
     5  C    0.000016  -0.000000  -0.000001   0.000000   0.000000  -0.000000
     6  C   -0.000000  -0.000000   0.000000   0.000000   0.000000  -0.000000
     7  H   -0.000001   0.000001  -0.000000   0.000000   0.000001   0.000000
     8  H    0.000035   0.000001  -0.000009   0.000000   0.000000  -0.000000
     9  H   -0.000000   0.000000   0.000000  -0.000000   0.000000   0.000000
    10  H   -0.000000  -0.000000   0.000000  -0.000000  -0.000000  -0.000000
    11  N   -0.014791   0.004177  -0.010174  -0.000075   0.000255  -0.000541
    12  S   -0.076937  -0.011180   0.005412   0.000388   0.008143  -0.000168
    13  C    5.536277   0.416354   0.149030  -0.004651  -0.040895  -0.042824
    14  C    0.416354   4.893718   0.009116   0.537600   0.398542  -0.064995
    15  C    0.149030   0.009116   4.728533  -0.052967   0.005490   0.436867
    16  C   -0.004651   0.537600  -0.052967   4.764185  -0.030049  -0.017161
    17  H   -0.040895   0.398542   0.005490  -0.030049   0.671053  -0.000947
    18  C   -0.042824  -0.064995   0.436867  -0.017161  -0.000947   4.956784
    19  C   -0.053959  -0.018256   0.000249   0.474530   0.008046   0.490521
    20  H    0.009100  -0.036735  -0.000151   0.399949  -0.011563   0.008235
    21  H    0.016093  -0.000609  -0.026054   0.007647   0.000055   0.371414
    22  H   -0.001880   0.009963   0.008326  -0.046267  -0.000205  -0.039567
    23  C    0.341511  -0.098847  -0.064335   0.006012  -0.022267   0.012338
    24  O   -0.110396   0.006699   0.699689  -0.000229  -0.000077  -0.068848
    25  H   -0.066661  -0.001140  -0.002289   0.000079  -0.000123   0.003553
              19         20         21         22         23         24
     1  C   -0.000000  -0.000000  -0.000000   0.000000   0.003332   0.000001
     2  C    0.000000  -0.000000   0.000000  -0.000000  -0.054269  -0.000167
     3  C    0.000002  -0.000000  -0.000001  -0.000000  -0.095918  -0.000508
     4  C    0.000000  -0.000000  -0.000000  -0.000000   0.003444   0.000063
     5  C   -0.000000  -0.000000  -0.000000   0.000000   0.000437   0.000001
     6  C    0.000000  -0.000000   0.000000  -0.000000  -0.000457  -0.000000
     7  H   -0.000000   0.000000  -0.000000   0.000000   0.000287   0.000000
     8  H    0.000000  -0.000000   0.000000  -0.000000  -0.000603  -0.000115
     9  H   -0.000000   0.000000  -0.000000  -0.000000   0.000007   0.000000
    10  H    0.000000   0.000000   0.000000  -0.000000   0.000005  -0.000000
    11  N    0.000013   0.000001   0.000002  -0.000000   0.494218  -0.020150
    12  S    0.000017   0.000010   0.000004  -0.000000   0.301506   0.000068
    13  C   -0.053959   0.009100   0.016093  -0.001880   0.341511  -0.110396
    14  C   -0.018256  -0.036735  -0.000609   0.009963  -0.098847   0.006699
    15  C    0.000249  -0.000151  -0.026054   0.008326  -0.064335   0.699689
    16  C    0.474530   0.399949   0.007647  -0.046267   0.006012  -0.000229
    17  H    0.008046  -0.011563   0.000055  -0.000205  -0.022267  -0.000077
    18  C    0.490521   0.008235   0.371414  -0.039567   0.012338  -0.068848
    19  C    4.752516  -0.046570  -0.046679   0.402680   0.000253   0.004495
    20  H   -0.046570   0.688210  -0.000154  -0.012552  -0.000403   0.000000
    21  H   -0.046679  -0.000154   0.683958  -0.012836  -0.000520   0.005209
    22  H    0.402680  -0.012552  -0.012836   0.676961   0.000006  -0.000069
    23  C    0.000253  -0.000403  -0.000520   0.000006   5.137183  -0.015717
    24  O    0.004495   0.000000   0.005209  -0.000069  -0.015717   7.818980
    25  H   -0.000314  -0.000000  -0.000011   0.000004   0.049279   0.069100
              25
     1  C    0.000316
     2  C    0.021892
     3  C   -0.056657
     4  C   -0.017291
     5  C   -0.000517
     6  C   -0.000002
     7  H    0.000009
     8  H    0.000815
     9  H   -0.000014
    10  H   -0.000000
    11  N    0.365226
    12  S    0.010615
    13  C   -0.066661
    14  C   -0.001140
    15  C   -0.002289
    16  C    0.000079
    17  H   -0.000123
    18  C    0.003553
    19  C   -0.000314
    20  H   -0.000000
    21  H   -0.000011
    22  H    0.000004
    23  C    0.049279
    24  O    0.069100
    25  H    0.788105
 Mulliken charges:
               1
     1  C    0.015239
     2  C   -0.226890
     3  C    0.218498
     4  C   -0.012522
     5  C    0.007061
     6  C    0.005984
     7  H    0.029751
     8  H    0.037280
     9  H    0.030256
    10  H    0.029495
    11  N    0.217548
    12  S    0.215050
    13  C   -0.070420
    14  C   -0.045013
    15  C    0.113468
    16  C   -0.038987
    17  H    0.014329
    18  C   -0.044638
    19  C    0.032456
    20  H    0.002624
    21  H    0.002481
    22  H    0.015436
    23  C    0.003518
    24  O   -0.388030
    25  H   -0.163973
 Sum of Mulliken charges =  -0.00000
 Mulliken charges with hydrogens summed into heavy atoms:
               1
     1  C    0.044990
     2  C   -0.226890
     3  C    0.218498
     4  C    0.024757
     5  C    0.037317
     6  C    0.035478
    11  N    0.053575
    12  S    0.215050
    13  C   -0.070420
    14  C   -0.030684
    15  C    0.113468
    16  C   -0.036363
    18  C   -0.042156
    19  C    0.047892
    23  C    0.003518
    24  O   -0.388030
 Electronic spatial extent (au):  <R**2>=           4322.1892
 Charge=              0.0000 electrons
 Dipole moment (field-independent basis, Debye):
    X=              1.7625    Y=             -6.1487    Z=             -0.0001  Tot=              6.3963
 Quadrupole moment (field-independent basis, Debye-Ang):
   XX=            -81.9925   YY=            -95.3451   ZZ=           -103.8564
   XY=             -6.7671   XZ=             -0.0001   YZ=             -0.0002
 Traceless Quadrupole moment (field-independent basis, Debye-Ang):
   XX=             11.7389   YY=             -1.6138   ZZ=            -10.1251
   XY=             -6.7671   XZ=             -0.0001   YZ=             -0.0002
 Octapole moment (field-independent basis, Debye-Ang**2):
  XXX=             38.1052  YYY=            -64.6260  ZZZ=             -0.0000  XYY=              3.3771
  XXY=            -10.3091  XXZ=             -0.0001  XZZ=              2.8267  YZZ=              2.6277
  YYZ=             -0.0004  XYZ=             -0.0004
 Hexadecapole moment (field-independent basis, Debye-Ang**3):
 XXXX=          -2596.0272 YYYY=          -2652.2224 ZZZZ=           -112.7273 XXXY=            814.2377
 XXXZ=              0.0099 YYYX=            778.0311 YYYZ=             -0.0156 ZZZX=              0.0140
 ZZZY=             -0.0172 XXYY=           -843.6080 XXZZ=           -572.6839 YYZZ=           -543.2835
 XXYZ=             -0.0042 YYXZ=              0.0023 ZZXY=            360.2160
 N-N= 1.103383068084D+03 E-N=-4.618795165789D+03  KE= 1.024566357399D+03
 No NMR shielding tensors so no spin-rotation constants.
 Leave Link  601 at Wed Oct 28 00:11:51 2020, MaxMem=  7784628224 cpu:               3.1 elap:               0.4
 (Enter /gpfs/loomis/apps/avx/software/Gaussian/16-C.01_AVX/g16/l701.exe)
 ... and contract with generalized density number  0.
 Compute integral first derivatives.
 R6Disp: Adding Grimme-D2 dispersion energy 1st derivatives to the gradient.
 D1PCM: PCM CHGder 1st derivatives, ID1Alg=3 FixD1E=F DoIter=F DoCFld=F I1PDM=0.
 GePol: Maximum number of non-zero 1st derivatives   =     256
 Leave Link  701 at Wed Oct 28 00:11:54 2020, MaxMem=  7784628224 cpu:              22.7 elap:               2.6
 (Enter /gpfs/loomis/apps/avx/software/Gaussian/16-C.01_AVX/g16/l702.exe)
 L702 exits ... SP integral derivatives will be done elsewhere.
 Leave Link  702 at Wed Oct 28 00:11:54 2020, MaxMem=  7784628224 cpu:               0.3 elap:               0.1
 (Enter /gpfs/loomis/apps/avx/software/Gaussian/16-C.01_AVX/g16/l703.exe)
 Integral derivatives from FoFJK, PRISM(SPDF).
 Compute integral first derivatives, UseDBF=F ICtDFT=           0.
 Calling FoFJK, ICntrl=      2127 FMM=F ISym2X=0 I1Cent= 0 IOpClX= 0 NMat=1 NMatS=1 NMatT=0.
 FoFJK:  IHMeth= 1 ICntrl=    2127 DoSepK=T KAlg= 0 I1Cent=           0 FoldK=F
 IRaf=         1 NMat=       1 IRICut=       1 DoRegI=T DoRafI=F ISym2E= 0 IDoP0=0 IntGTp=1.
 FoFCou: FMM=F IPFlag=           0 FMFlag=      100000 FMFlg1=         800
         NFxFlg=           0 DoJE=F BraDBF=F KetDBF=F FulRan=T
         wScrn=  0.000000 ICntrl=      2527 IOpCl=  0 I1Cent=           0 NGrid=           0
         NMat0=    1 NMatS0=      1 NMatT0=    0 NMatD0=    1 NMtDS0=    0 NMtDT0=    0
 Symmetry not used in FoFCou.
 Leave Link  703 at Wed Oct 28 00:12:10 2020, MaxMem=  7784628224 cpu:             138.4 elap:              16.2
 (Enter /gpfs/loomis/apps/avx/software/Gaussian/16-C.01_AVX/g16/l716.exe)
 Dipole        = 6.93422960D-01-2.41908728D+00-3.83488720D-05
 -------------------------------------------------------------------
 Center     Atomic                   Forces (Hartrees/Bohr)
 Number     Number              X              Y              Z
 -------------------------------------------------------------------
      1        6           0.001726887    0.004510205   -0.000000071
      2        6           0.010364949   -0.000777805   -0.000000277
      3        6          -0.000345471   -0.010472983   -0.000000207
      4        6           0.001374015    0.001983048    0.000000154
      5        6           0.000104109    0.004658152    0.000000062
      6        6          -0.001365103    0.003476143   -0.000000109
      7        1           0.002241811    0.002754524   -0.000000057
      8        1          -0.002137893   -0.002732430    0.000000044
      9        1          -0.001725441    0.000512909   -0.000000002
     10        1          -0.000696913    0.001929192   -0.000000013
     11        7          -0.169609634   -0.786358458   -0.000031051
     12       16           0.006194072    0.000568813   -0.000000481
     13        6           0.031752298    0.006203098   -0.000000756
     14        6          -0.052654716    0.027617303   -0.000000274
     15        6           0.003999532   -0.013525294    0.000000282
     16        6           0.011198818   -0.047261350   -0.000000406
     17        1          -0.000867267    0.001728827    0.000000028
     18        6          -0.023247775   -0.000551640    0.000000465
     19        6           0.036313932    0.015939249    0.000000269
     20        1           0.002156087    0.000405348    0.000000039
     21        1          -0.001392147   -0.001897302   -0.000000366
     22        1           0.000890192    0.000220682    0.000000054
     23        6          -0.010939658    0.026014300    0.000001533
     24        8          -0.004154014    0.017488333   -0.000000360
     25        1           0.160819329    0.747567134    0.000031500
 -------------------------------------------------------------------
 Cartesian Forces:  Max     0.786358458 RMS     0.128716113
 Leave Link  716 at Wed Oct 28 00:12:10 2020, MaxMem=  7784628224 cpu:               0.3 elap:               0.1
 (Enter /gpfs/loomis/apps/avx/software/Gaussian/16-C.01_AVX/g16/l103.exe)

 GradGradGradGradGradGradGradGradGradGradGradGradGradGradGradGradGradGrad
 Berny optimization.
 FormGI is forming the generalized inverse of G from B-inverse, IUseBI=4.
 Internal  Forces:  Max     0.530073673 RMS     0.055140095
 Search for a local minimum.
 Step number   1 out of a maximum of  146
 All quantities printed in internal units (Hartrees-Bohrs-Radians)
 RMS Force = .55547D-01 SwitMx=.10000D-02 MixMth= 1
 Mixed Optimization -- RFO/linear search
 Second derivative matrix not updated -- first step.
 ITU=  0
     Eigenvalues ---    0.01322   0.01486   0.01597   0.01739   0.01772
     Eigenvalues ---    0.01796   0.01817   0.01845   0.01876   0.01880
     Eigenvalues ---    0.01923   0.01962   0.01981   0.02023   0.02069
     Eigenvalues ---    0.02083   0.02087   0.02090   0.02120   0.02129
     Eigenvalues ---    0.02131   0.02145   0.16000   0.16000   0.16000
     Eigenvalues ---    0.16000   0.16000   0.16000   0.16000   0.16003
     Eigenvalues ---    0.17144   0.22007   0.22010   0.22535   0.22589
     Eigenvalues ---    0.24401   0.24481   0.24601   0.25000   0.25000
     Eigenvalues ---    0.29937   0.30436   0.33477   0.34199   0.34203
     Eigenvalues ---    0.34239   0.34300   0.34361   0.34423   0.34460
     Eigenvalues ---    0.34491   0.35818   0.38150   0.40545   0.41463
     Eigenvalues ---    0.41916   0.42902   0.43566   0.43757   0.45253
     Eigenvalues ---    0.45498   0.45850   0.46331   0.47712   0.50119
     Eigenvalues ---    0.77661   1.307671000.000001000.000001000.00000
     Eigenvalues --- 1000.000001000.000001000.000001000.000001000.00000
     Eigenvalues --- 1000.000001000.000001000.000001000.000001000.00000
     Eigenvalues --- 1000.000001000.000001000.000001000.000001000.00000
     Eigenvalues --- 1000.000001000.000001000.000001000.000001000.00000
     Eigenvalues --- 1000.000001000.000001000.000001000.000001000.00000
     Eigenvalues --- 1000.000001000.000001000.000001000.000001000.00000
     Eigenvalues --- 1000.000001000.000001000.000001000.000001000.00000
     Eigenvalues --- 1000.000001000.000001000.000001000.000001000.00000
     Eigenvalues --- 1000.000001000.000001000.000001000.000001000.00000
     Eigenvalues --- 1000.000001000.000001000.000001000.000001000.00000
     Eigenvalues --- 1000.000001000.000001000.000001000.000001000.00000
     Eigenvalues --- 1000.000001000.000001000.000001000.000001000.00000
     Eigenvalues --- 1000.000001000.000001000.000001000.000001000.00000
     Eigenvalues --- 1000.00000
 RFO step:  Lambda=-2.76395770D-01 EMin= 1.32197800D-02
 Linear search not attempted -- first point.
 Maximum step size (   0.300) exceeded in Quadratic search.
    -- Step size scaled by   0.671
 Iteration  1 RMS(Cart)=  0.02658325 RMS(Int)=  0.00241882
 Iteration  2 RMS(Cart)=  0.00221132 RMS(Int)=  0.00114457
 Iteration  3 RMS(Cart)=  0.00001341 RMS(Int)=  0.00132656
 Iteration  4 RMS(Cart)=  0.00000003 RMS(Int)=  0.00132642
 Iteration  1 RMS(Cart)=  0.00002451 RMS(Int)=  0.00002584
 Iteration  2 RMS(Cart)=  0.00000048 RMS(Int)=  0.00001344
 ITry= 1 IFail=0 DXMaxC= 1.66D-01 DCOld= 1.00D+10 DXMaxT= 3.00D-01 DXLimC= 3.00D+00 Rises=F
 Variable       Old X    -DE/DX   Delta X   Delta X   Delta X     New X
                                 (Linear)    (Quad)   (Total)
    R1        2.64064  -0.03291   0.00000  -0.01472  -0.01428   2.62636
    R2        2.63482  -0.00756   0.00000  -0.00217  -0.00210   2.63272
    R3        2.06995  -0.00584   0.00000  -0.00474  -0.00469   2.06526
    R4        2.68590  -0.10789   0.00000  -0.05113  -0.04964   2.63626
    R5        3.30246   0.04044   0.00000   0.02245   0.02161   3.32407
    R6        2.64203   0.00143   0.00000  -0.00284  -0.00291   2.63911
    R7        2.64666  -0.02841   0.00000  -0.01734  -0.01694   2.62972
    R8        2.64967   0.00654   0.00000  -0.00366  -0.00388   2.64579
    R9        2.06990  -0.00270   0.00000  -0.00346  -0.00348   2.06642
   R10        2.64704  -0.02632   0.00000  -0.00934  -0.00888   2.63816
   R11        2.06623  -0.00214   0.00000  -0.00204  -0.00204   2.06419
   R12        2.06560  -0.00237   0.00000  -0.00234  -0.00234   2.06326
   R13        2.57402   0.03653   0.00000   0.00593   0.00520   2.57922
   R14        1.35382   0.53007   0.00000   0.22844   0.23261   1.58643
   R15        3.26204  -0.10365   0.00000  -0.03299  -0.03088   3.23116
   R16        2.61135  -0.00935   0.00000   0.01430   0.01505   2.62640
   R17        2.79219  -0.05192   0.00000  -0.01521  -0.01408   2.77811
   R18        2.68749   0.05418   0.00000   0.01954   0.01857   2.70606
   R19        2.69120   0.01165   0.00000  -0.02187  -0.02287   2.66833
   R20        2.06928  -0.00202   0.00000  -0.00176  -0.00175   2.06754
   R21        2.71562   0.06584   0.00000   0.02282   0.02158   2.73720
   R22        2.37003  -0.08881   0.00000  -0.01956  -0.01794   2.35210
   R23        2.63659  -0.01623   0.00000   0.00315   0.00370   2.64029
   R24        2.06726  -0.00099   0.00000  -0.00192  -0.00194   2.06531
   R25        2.65568   0.01040   0.00000  -0.01303  -0.01376   2.64192
   R26        2.06826  -0.00281   0.00000  -0.00263  -0.00261   2.06565
   R27        2.06509   0.00173   0.00000   0.00034   0.00030   2.06539
    A1        2.05960   0.01835   0.00000   0.00756   0.00710   2.06670
    A2        2.10209  -0.01403   0.00000  -0.00617  -0.00585   2.09625
    A3        2.12149  -0.00432   0.00000  -0.00139  -0.00125   2.12024
    A4        2.14720  -0.01033   0.00000  -0.01107  -0.01083   2.13637
    A5        2.18191  -0.01122   0.00000   0.00901   0.00961   2.19153
    A6        1.95407   0.02155   0.00000   0.00206   0.00121   1.95529
    A7        2.05992   0.02959   0.00000   0.02179   0.02142   2.08133
    A8        1.95349  -0.07621   0.00000  -0.03555  -0.03435   1.91914
    A9        2.26978   0.04661   0.00000   0.01376   0.01293   2.28271
   A10        2.07633  -0.01427   0.00000  -0.00829  -0.00804   2.06828
   A11        2.10332   0.01042   0.00000   0.00574   0.00556   2.10888
   A12        2.10354   0.00384   0.00000   0.00255   0.00248   2.10602
   A13        2.13371  -0.01593   0.00000  -0.00964  -0.00939   2.12432
   A14        2.06758   0.00880   0.00000   0.00483   0.00469   2.07227
   A15        2.08190   0.00712   0.00000   0.00481   0.00470   2.08660
   A16        2.08962  -0.00743   0.00000  -0.00036  -0.00025   2.08936
   A17        2.09550   0.00307   0.00000   0.00011   0.00006   2.09556
   A18        2.09807   0.00436   0.00000   0.00025   0.00019   2.09826
   A19        1.94939   0.12265   0.00000   0.07461   0.07297   2.02235
   A20        2.36381  -0.15989   0.00000  -0.10956  -0.10672   2.25710
   A21        1.96999   0.03724   0.00000   0.03495   0.03375   2.00374
   A22        1.55373   0.03982   0.00000   0.02731   0.02660   1.58032
   A23        2.12395   0.00831   0.00000  -0.00292  -0.00319   2.12076
   A24        2.12395   0.01199   0.00000  -0.00127  -0.00177   2.12219
   A25        2.03528  -0.02030   0.00000   0.00420   0.00495   2.04024
   A26        2.08696   0.02045   0.00000   0.01433   0.01409   2.10105
   A27        2.11593  -0.01128   0.00000  -0.00630  -0.00613   2.10980
   A28        2.08030  -0.00917   0.00000  -0.00803  -0.00796   2.07234
   A29        2.02644  -0.02006   0.00000  -0.01240  -0.01210   2.01434
   A30        2.07118  -0.06434   0.00000  -0.01010  -0.00844   2.06273
   A31        2.18557   0.08440   0.00000   0.02250   0.02055   2.20612
   A32        2.10805  -0.00835   0.00000  -0.00842  -0.00837   2.09968
   A33        2.07533   0.00421   0.00000   0.00414   0.00412   2.07945
   A34        2.09981   0.00414   0.00000   0.00427   0.00425   2.10406
   A35        2.11711   0.01267   0.00000   0.00919   0.00901   2.12613
   A36        2.04132  -0.00269   0.00000  -0.00188  -0.00185   2.03948
   A37        2.12475  -0.00997   0.00000  -0.00731  -0.00717   2.11758
   A38        2.10386  -0.01303   0.00000   0.00022   0.00057   2.10443
   A39        2.08796   0.00262   0.00000  -0.00135  -0.00143   2.08653
   A40        2.09137   0.01041   0.00000   0.00113   0.00087   2.09223
   A41        2.01410  -0.10781   0.00000  -0.06843  -0.06643   1.94767
   A42        2.13859   0.06862   0.00000   0.04173   0.04053   2.17912
   A43        2.13049   0.03919   0.00000   0.02670   0.02590   2.15639
    D1       -0.00000   0.00000   0.00000   0.00000   0.00000  -0.00000
    D2        3.14159  -0.00000   0.00000  -0.00000  -0.00000   3.14159
    D3        3.14159   0.00000   0.00000   0.00000   0.00000   3.14159
    D4       -0.00000  -0.00000   0.00000  -0.00000  -0.00000  -0.00000
    D5       -0.00000  -0.00000   0.00000  -0.00000  -0.00000  -0.00000
    D6        3.14159  -0.00000   0.00000  -0.00000  -0.00000   3.14159
    D7        3.14159  -0.00000   0.00000  -0.00000  -0.00000   3.14159
    D8       -0.00000  -0.00000   0.00000  -0.00000  -0.00000  -0.00000
    D9        0.00000   0.00000   0.00000   0.00000   0.00000   0.00000
   D10       -3.14159  -0.00000   0.00000  -0.00000  -0.00000  -3.14159
   D11       -3.14159   0.00000   0.00000   0.00000   0.00000  -3.14159
   D12        0.00000   0.00000   0.00000   0.00000   0.00000   0.00000
   D13        3.14159  -0.00000   0.00000  -0.00000  -0.00000   3.14159
   D14       -0.00000  -0.00000   0.00000  -0.00000  -0.00000  -0.00001
   D15       -0.00000  -0.00000   0.00000  -0.00000  -0.00000  -0.00000
   D16        3.14159  -0.00000   0.00000  -0.00000  -0.00000   3.14159
   D17        3.14159   0.00000   0.00000   0.00000   0.00000  -3.14159
   D18        0.00000   0.00000   0.00000   0.00000   0.00000   0.00000
   D19        0.00001   0.00000   0.00000   0.00000   0.00000   0.00001
   D20        3.14153   0.00001   0.00000   0.00001   0.00000   3.14153
   D21       -3.14159   0.00000   0.00000  -0.00000   0.00000  -3.14159
   D22       -0.00007   0.00000   0.00000   0.00000   0.00000  -0.00006
   D23        0.00000   0.00000   0.00000   0.00000   0.00000   0.00000
   D24       -3.14159   0.00000   0.00000   0.00000   0.00000  -3.14159
   D25        3.14159   0.00000   0.00000   0.00000   0.00000   3.14159
   D26        0.00000  -0.00000   0.00000  -0.00000  -0.00000   0.00000
   D27        0.00000   0.00000   0.00000   0.00000   0.00000   0.00000
   D28       -3.14159  -0.00000   0.00000  -0.00000  -0.00000  -3.14159
[...]
 4312,0.,-0.01172837,-0.00535846,0.00000006,0.00164201,0.00624617,0.000
 00012,-0.01178305,-0.21664183,-0.00000242,-0.05441063,0.00988127,0.000
 00028,0.07219420,0.56051029,0.,0.00000003,0.00057021,0.00000006,-0.000
 00005,0.00074167,0.00000004,-0.00000004,-0.00127548,-0.00000004,0.0000
 0002,-0.00016128,0.,-0.00000004,0.00016268,0.00000004,0.,-0.00018753,0
 .,0.,0.00004905,0.,0.,-0.00006635,0.,0.,0.00004670,0.,0.,-0.00009234,0
 .00000002,0.00000010,-0.00082157,0.00000004,0.00000003,0.00245228,0.00
 000016,-0.00000202,-0.07371470,-0.00000033,0.00000046,0.00052601,-0.00
 000785,-0.00000076,0.20089951,0.00071130,-0.00097810,-0.00000001,-0.00
 118828,0.00161420,0.,0.00005808,-0.00159091,-0.00000003,0.00069381,0.0
 0009342,0.,0.00000321,0.00110331,0.00000001,-0.00123497,-0.00009878,0.
 ,0.00003714,0.00003746,0.,0.00003217,-0.00005167,0.,-0.00007965,0.0000
 7042,0.,-0.00004984,0.00003710,0.,-0.00792587,0.00052703,0.00000008,0.
 00113265,0.00243414,0.00000006,-0.05373413,0.02235008,0.00000049,-0.26
 830839,0.17438808,0.00000188,-0.00287619,0.01715788,-0.00000005,0.7744
 0030,-0.00135810,0.00225208,0.00000002,0.00231979,-0.00171989,-0.00000
 002,0.00053343,0.00138513,0.00000005,-0.00179670,0.00050561,0.00000002
 ,-0.00010341,-0.00257146,-0.00000003,0.00269421,0.00025366,0.,-0.00012
 702,-0.00006196,0.,0.00005814,0.00008758,0.,0.00015583,-0.00011104,0.,
 0.00013235,-0.00006996,0.,0.01371113,0.00323376,-0.00000011,-0.0040463
 8,-0.00527692,-0.00000010,0.05694305,0.00856687,-0.00000009,0.11623539
 ,-0.26827806,-0.00000194,0.02910819,-0.03916253,-0.00000047,-0.0199162
 7,0.66812075,0.,0.,0.00006084,0.,0.,0.00055776,0.,0.00000002,-0.000510
 04,0.,0.,-0.00012580,0.,0.,0.00004406,0.,0.,-0.00002450,0.,0.,0.000004
 49,0.,0.,0.00000517,0.,0.,0.00001769,0.,0.,-0.00002883,0.00000007,0.00
 000001,-0.00008958,-0.00000003,-0.00000001,-0.00105585,0.00000041,0.,0
 .00980868,0.00000159,-0.00000190,-0.06170860,-0.00000010,-0.00000025,-
 0.00666589,-0.00000325,0.00000084,0.11974771,0.00033767,-0.00004320,0.
 ,-0.00073589,0.00044144,-0.00000002,0.00032790,-0.00024038,0.,0.000068
 77,0.00004924,0.,0.00005900,0.00011678,0.,-0.00014305,-0.00009253,0.,-
 0.00001575,-0.00000989,0.,0.00004099,-0.00000074,0.,0.00000721,0.00000
 118,0.,0.00003106,-0.00000830,0.,-0.00006368,0.00027735,0.,-0.00162889
 ,0.00243582,0.00000013,-0.00369427,-0.02810872,-0.00000028,-0.07991427
 ,-0.07623751,-0.00000034,-0.00477009,0.00337428,0.00000011,0.01020074,
 0.02232729,0.00000010,0.08141828,0.00012393,-0.00006810,0.,-0.00017447
 ,0.00087089,0.00000003,0.00043291,-0.00041998,0.,0.00007437,0.00010798
 ,0.,0.00002111,0.00014014,0.,-0.00017509,-0.00002655,0.,-0.00001590,0.
 00001040,0.,0.00003888,-0.00000612,0.,-0.00000570,0.00000859,0.,0.0000
 0685,0.00000233,0.,-0.00128421,0.00009775,0.,0.00108827,-0.00080293,-0
 .00000008,-0.00001639,-0.00355301,-0.00000005,-0.07300388,-0.31494449,
 -0.00000182,-0.00003889,0.00276316,0.00000003,-0.01079272,-0.01668959,
 -0.00000010,0.07775880,0.33595537,0.,0.,-0.00001375,0.,0.00000001,-0.0
 0067229,0.,-0.00000002,0.00012658,0.,0.,0.00008121,0.,0.,-0.00002046,0
 .,0.,0.00003167,0.,0.,-0.00001222,0.,0.,-0.00001705,0.,0.,-0.00000308,
 0.,0.,0.00001876,-0.00000007,0.,-0.00012913,0.00000010,-0.00000004,0.0
 0159646,-0.00000027,0.00000004,0.00280522,-0.00000007,-0.00000189,-0.0
 3711406,-0.00000007,0.00000014,0.00450321,-0.00000027,-0.00000005,0.00
 616391,0.00000033,0.00000207,0.02354069,-0.00052556,0.00125078,0.00000
 001,0.00104188,-0.00095309,-0.00000002,0.00135303,0.00076326,0.0000000
 1,-0.00103560,0.00020396,0.00000001,-0.00002657,-0.00141477,-0.0000000
 2,0.00144144,0.00013708,0.,-0.00008052,0.00000744,0.,0.00012192,0.0000
 3142,0.,0.00007623,-0.00005722,0.,0.00007434,-0.00002172,0.,0.00783529
 ,0.00322314,-0.00000004,-0.00168659,-0.00226368,-0.00000006,0.04360522
 ,0.00413363,-0.00000030,-0.04608467,0.01842780,0.00000026,-0.13156720,
 0.03614204,-0.00000121,0.00266951,-0.07087827,0.00000017,-0.00005102,0
 .00040526,0.00000014,0.71481474,0.00077129,-0.00066493,0.,-0.00133277,
 0.00020438,0.,-0.00008702,-0.00039269,-0.00000003,0.00060206,-0.000149
 02,0.,0.00009592,0.00086505,0.00000001,-0.00090741,-0.00017893,0.,0.00
 001164,0.00003317,0.,0.00000559,-0.00002423,0.,-0.00003454,0.00003432,
 0.,-0.00000325,0.00000801,0.,-0.00438218,0.00014981,0.00000006,0.00228
 419,0.00080789,0.,0.00915349,-0.02237133,0.00000031,0.00859329,-0.0047
 3068,-0.00000005,0.05757565,-0.19493565,0.00000114,-0.03787388,-0.0006
 6349,0.00000005,-0.00009844,0.00057933,0.00000003,0.10287106,0.6827785
 3,0.,0.,-0.00015166,-0.00000003,0.00000002,-0.00030074,0.,0.00000001,-
 0.00094607,0.,0.,0.00003384,0.,0.00000001,0.00003861,-0.00000001,0.,0.
 00005161,0.,0.,-0.00005615,0.,0.,-0.00003801,0.,0.,-0.00000416,0.,0.,0
 .00004179,-0.00000005,-0.00000001,0.00052670,0.,-0.00000002,-0.0007288
 2,-0.00000013,-0.00000049,0.01051593,0.,-0.00000006,-0.00057402,-0.000
 00131,0.00000180,-0.07862436,0.00000022,0.00000013,0.00771717,0.,-0.00
 000001,0.00002202,-0.00000042,-0.00000397,0.12015403,0.00089354,-0.001
 39871,-0.00000001,-0.00160267,0.00106622,0.00000002,-0.00056225,-0.000
 74699,-0.00000002,0.00116923,-0.00027417,-0.00000001,0.00006233,0.0016
 4052,0.00000002,-0.00170789,-0.00019397,0.,0.00007350,0.00003726,0.,-0
 .00004583,-0.00005499,0.,-0.00009518,0.00007301,0.,-0.00007461,0.00003
 898,0.,-0.00834740,-0.00144320,0.00000008,0.00248854,0.00285558,0.0000
 0005,-0.03124359,0.00442973,-0.00000003,0.04753416,0.00539288,-0.00000
 007,-0.04926591,0.02251092,0.00000063,-0.13653655,-0.01958183,0.000000
 09,-0.00315694,0.00446468,0.00000009,-0.41092820,-0.10339174,0.0000005
 1,0.76594206,0.00090212,-0.00143231,-0.00000002,-0.00138182,0.00131671
 ,0.,-0.00029755,-0.00165516,-0.00000003,0.00098256,-0.00015426,-0.0000
 0001,0.00005656,0.00157744,0.00000002,-0.00173294,-0.00013920,0.,0.000
 08129,0.00002429,0.,-0.00004912,-0.00004992,0.,-0.00010167,0.00007752,
 0.,-0.00007555,0.00004088,0.,-0.01104711,-0.00196658,0.00000008,0.0026
 8178,0.00286777,0.00000007,-0.03902705,-0.00268628,0.,0.04870618,-0.05
 444633,-0.00000013,-0.00615252,0.05136110,0.00000018,-0.08316501,-0.28
 706019,0.00000086,0.00271759,-0.00175543,-0.00000015,-0.04524693,-0.15
 288076,0.00000071,-0.01854285,0.67550060,0.,0.,-0.00000353,0.,0.,0.000
 18382,0.,0.,0.00035719,0.,0.,-0.00000217,0.,0.,-0.00003012,0.,0.,-0.00
 000083,0.,0.,0.00001107,0.,0.,0.00003142,0.,0.,-0.00000417,0.,0.,-0.00
 001309,0.00000006,0.00000002,-0.00000504,-0.00000002,-0.00000001,-0.00
 026241,0.00000020,0.00000005,-0.00479685,-0.00000012,-0.00000020,0.007
 08162,-0.00000016,-0.00000034,-0.00030505,0.00000040,0.00000098,-0.062
 01987,0.00000007,-0.00000013,0.00850858,0.00000041,0.00000066,-0.05849
 697,-0.00000066,-0.00000180,0.14464654,0.00001288,-0.00008438,0.,-0.00
 001382,0.00013568,0.,-0.00003496,-0.00016286,0.,0.00004405,0.00003043,
 0.,-0.00001207,0.00006849,0.,-0.00008587,0.00000923,0.,0.00000632,0.00
 000513,0.,0.00000193,-0.00000528,0.,-0.00000934,0.00000832,0.,-0.00000
 949,0.00000586,0.,-0.00047937,0.00040420,0.,0.00003629,0.00008797,0.,-
 0.00028322,0.00387365,0.00000007,-0.01575262,-0.00902892,0.,0.00057111
 ,0.00017799,0.,-0.32979871,-0.06937359,0.00000093,0.00076043,0.0001469
 0,-0.00000002,0.00141673,-0.00125867,0.00000002,-0.00363783,0.00255656
 ,-0.00000001,0.34747008,-0.00000176,0.00002420,0.,0.00001483,-0.000066
 09,0.,0.00006893,0.00009459,0.,-0.00001493,-0.00003961,0.,0.00001228,-
 0.00001623,0.,0.00002302,-0.00000376,0.,-0.00000034,-0.00000270,0.,0.0
 0000073,0.00000161,0.,0.00000317,-0.00000463,0.,0.00000251,-0.00000120
 ,0.,0.00031054,-0.00034099,0.,0.00001281,0.00003240,0.,0.00231681,-0.0
 0298634,-0.00000006,0.02368789,0.00866039,-0.00000004,0.00062439,-0.00
 143074,0.,-0.07057888,-0.07480242,0.00000020,-0.00009569,0.00095007,0.
 00000002,0.00006050,-0.00526379,0.00000003,-0.02976965,-0.00212785,0.0
 0000005,0.07382171,0.07535908,0.,0.,0.00000773,0.,0.,-0.00009992,0.,0.
 ,-0.00037721,0.,0.,-0.00003239,0.,0.,0.00003986,0.,0.,-0.00000794,0.,0
 .,-0.00000119,0.,0.,-0.00001899,0.,0.,0.00000993,0.,0.,0.00000596,0.,0
 .,-0.00062719,0.,0.,0.00028620,0.00000009,-0.00000006,0.00822358,0.000
 00012,0.00000010,0.00156664,0.,0.00000001,-0.00070533,0.00000074,0.000
 00010,-0.03078034,-0.00000001,0.00000006,-0.00557709,0.00000005,0.0000
 0002,0.00409122,0.,-0.00000002,0.00057755,-0.00000098,-0.00000019,0.02
 368578,-0.00007771,0.00001260,0.,0.00010932,0.00010142,0.,-0.00003100,
 -0.00000131,0.,-0.00002182,0.00001141,0.,-0.00001044,-0.00003704,0.,0.
 00004044,0.00001912,0.,0.00000056,-0.00000414,0.,-0.00000345,0.,0.,0.0
 0000071,-0.00000101,0.,-0.00000457,-0.00000041,0.,0.00036972,-0.000062
 18,0.,-0.00035594,0.00015109,0.,-0.00277519,0.00262008,-0.00000002,-0.
 00150255,0.00028363,0.00000001,0.00961100,0.02229347,-0.00000012,-0.00
 480352,-0.00030197,-0.00000001,0.00013092,-0.00007631,0.,-0.07472113,-
 0.07084752,0.00000031,-0.00317103,-0.03008520,0.00000019,-0.00033674,-
 0.00143483,0.,0.07484173,0.00001914,0.00011301,0.,-0.00006697,-0.00020
 390,0.,0.00001869,0.00015697,0.,-0.00005441,-0.00000786,0.,0.00001461,
 -0.00008708,0.,0.00009910,-0.00001688,0.,-0.00000852,-0.00000006,0.,0.
 00000378,0.00000662,0.,0.00001153,-0.00000741,0.,0.00001450,-0.0000062
 4,0.,0.00040647,0.00005955,0.,0.00020268,-0.00036936,0.,0.00399003,-0.
 00242771,0.00000008,0.00102924,0.00048417,-0.00000002,-0.01266566,-0.0
 1596470,0.00000002,-0.00122836,0.00214736,0.00000012,-0.00005572,-0.00
 010497,-0.00000002,-0.07189826,-0.32573595,0.00000235,0.00213765,-0.00
 340362,0.,0.00003091,-0.00027618,0.,0.07866209,0.34228887,0.,0.,0.0000
 4779,0.,0.,0.00002719,0.,0.,-0.00001759,0.,0.,-0.00000235,0.,0.,0.0000
 0258,0.,0.,-0.00000815,0.,0.,0.00000492,0.,0.,0.00000055,0.,0.,0.00000
 263,0.,0.,-0.00000846,-0.00000002,0.,-0.00007156,0.,0.00000001,0.00011
 633,-0.00000008,0.00000008,0.00388879,-0.00000004,-0.00000003,-0.00075
 835,0.00000017,0.00000032,0.00437650,0.00000004,0.,0.00918267,0.,0.000
 00001,-0.00103032,0.00000047,0.00000201,-0.03406715,-0.00000004,0.0000
 0007,0.00322694,0.,0.,0.00053153,-0.00000041,-0.00000241,0.02415881,0.
 00004658,-0.00008911,0.,-0.00005036,0.00014844,0.,0.00007829,-0.000155
 53,0.,0.00004830,0.00000253,0.,0.00000021,0.00009034,0.,-0.00010608,0.
 00000020,0.,0.00000491,0.00000368,0.,0.00000615,-0.00000582,0.,-0.0000
 0927,0.00000644,0.,-0.00000725,0.00000543,0.,-0.00053150,0.00010650,0.
 ,0.00006118,0.00027695,0.,-0.00086198,0.00035285,0.,0.00109273,-0.0021
 2137,-0.00000002,-0.00228806,-0.00451404,0.00000011,0.00856150,-0.0077
 1962,0.00000003,0.00031454,-0.00038451,0.,-0.01582651,0.02410978,-0.00
 000025,-0.19829955,0.14073887,-0.00000025,0.00058936,0.00040855,0.,0.0
 0094928,-0.00030463,-0.00000003,0.20728337,0.00002019,0.00002874,0.,-0
 .00008398,0.00003408,0.,0.00002723,0.00006883,0.,-0.00000098,-0.000000
 15,0.,0.00001001,-0.00001374,0.,0.00001901,-0.00001124,0.,-0.00000608,
 -0.00000082,0.,0.00000382,0.00000193,0.,0.00000508,-0.00000257,0.,0.00
 000673,-0.00000366,0.,0.00017935,-0.00006281,0.,-0.00009689,-0.0000154
 8,0.,-0.00074886,0.00059980,0.,-0.00328752,-0.00525019,0.00000004,-0.0
 0250994,-0.00013274,0.00000005,0.02368458,-0.01421222,0.00000006,0.001
 12463,-0.00111996,-0.00000004,-0.00804353,0.00862546,-0.00000007,0.141
 21188,-0.20169214,0.00000057,-0.00024477,0.00105286,0.,0.00009589,0.00
 089415,-0.00000003,-0.15144382,0.21059601,0.,0.,-0.00000064,0.00000001
 ,0.,-0.00006734,0.,0.,0.00014789,0.,0.,0.00000726,0.,0.,-0.00000796,0.
 ,0.,-0.00000325,0.,0.,0.00000577,0.,0.,0.00000004,0.,0.,-0.00000028,0.
 ,0.,0.00000284,0.00000004,0.,-0.00004262,0.,-0.00000001,0.00027998,0.0
 0000014,-0.00000002,-0.00115890,-0.00000006,0.00000010,0.00442995,0.00
 000017,-0.00000007,0.01141329,-0.00000016,-0.00000013,0.00478739,-0.00
 000002,0.00000003,-0.00039099,-0.00000023,0.00000005,0.00728175,-0.000
 00006,0.00000064,-0.04228520,0.,-0.00000001,-0.00231754,0.00000002,-0.
 00000008,-0.00614354,0.00000040,-0.00000057,0.02678324,-0.00914621,0.0
 0001430,0.00000002,0.00827309,0.01506157,0.00000020,-0.06012413,0.0465
 6792,0.00000074,0.00712289,-0.00368600,0.,-0.00286328,0.00064205,-0.00
 000003,0.00261815,-0.00244707,-0.00000002,-0.00002111,-0.00099762,-0.0
 0000002,-0.00066364,0.00004310,0.00000001,0.00053391,-0.00035043,-0.00
 000001,-0.00058477,-0.00015351,0.,-0.35331869,-0.03405719,0.00000157,-
 0.06411626,-0.05740675,-0.00000075,-0.17563378,0.08415485,0.00000174,-
 0.06496815,0.03320475,0.00000054,0.04558746,0.02283068,-0.00000020,0.0
 0746552,-0.02919762,-0.00000006,0.00149784,0.00203039,0.00000010,-0.01
 291297,0.00401936,0.00000003,0.01398050,0.01556671,-0.00000009,-0.0003
 0094,0.00083725,0.,0.00023487,-0.00153567,0.00000006,0.00090761,-0.000
 02900,-0.00000007,0.69942747,0.00258231,-0.00340052,-0.00000004,0.0186
 4268,-0.02085807,-0.00000027,0.01448762,0.01594659,-0.00000014,0.00658
 999,-0.00951769,-0.00000011,-0.00057719,0.00648509,0.00000007,-0.00476
 088,-0.00341803,-0.00000005,0.00024352,-0.00047156,0.,-0.00055157,-0.0
 0003543,0.,0.00005369,-0.00035955,0.,-0.00043245,0.00014554,0.,-0.0398
 1204,-0.14674734,-0.00000028,-0.00851909,-0.17235359,-0.00000177,0.082
 75703,-0.21204651,-0.00000268,0.03407773,0.00621310,0.00000012,0.00263
 954,-0.04081443,-0.00000024,-0.01498539,0.02316853,0.00000002,-0.00282
 694,-0.00125034,-0.00000005,0.00899655,-0.01146345,-0.00000016,-0.0139
 4721,-0.01560896,0.00000011,-0.00112210,0.00076395,-0.00000003,0.00151
 872,-0.00033535,0.,-0.00070606,0.00016631,0.00000008,-0.07948769,0.567
 38064,0.00000011,-0.00000008,-0.00015117,0.00000005,-0.00000017,0.0008
 4175,0.00000017,0.00000002,-0.00019179,0.00000011,-0.00000007,0.000936
 56,0.,0.00000011,0.00130181,-0.00000011,-0.00000006,0.00098752,0.,0.,-
 0.00047978,0.,0.,-0.00046057,0.,0.,-0.00025656,0.,0.,-0.00006428,0.000
 00168,-0.00000071,-0.05008997,0.00000003,-0.00000165,-0.03158613,0.000
 00167,-0.00000230,-0.05826269,0.00000078,-0.00000010,-0.00574888,-0.00
 000012,-0.00000074,0.00457226,-0.00000021,0.00000049,0.00497735,-0.000
 00006,-0.00000004,-0.00218840,0.00000022,-0.00000020,0.00384388,-0.000
 00031,-0.00000032,-0.00076360,-0.00000001,0.,0.00171570,0.00000003,0.0
 0000001,-0.00040167,-0.00000001,0.,-0.00069011,-0.00000417,0.00000548,
 0.13705248,-0.00120123,0.00302251,0.00000003,0.00203828,-0.00112769,0.
 ,0.00612996,0.00109687,0.00000007,-0.00269344,0.00064394,0.00000002,0.
 00002196,-0.00338242,-0.00000004,0.00332422,0.00054559,0.,-0.00018801,
 0.00010450,0.,0.00029206,0.00007764,0.,0.00011777,-0.00009357,0.,0.000
 15170,-0.00000934,0.,0.01610298,0.01744982,0.,-0.00285443,-0.00497861,
 -0.00000015,-0.01177505,-0.06761517,0.00000028,-0.01371422,0.00157636,
 0.00000013,-0.58958569,-0.11248106,0.00000847,0.00047956,-0.02058350,0
 .00000009,-0.00120404,-0.00070571,0.,-0.08123590,0.01031226,0.00000108
 ,0.01710976,0.02294731,-0.00000003,-0.00021646,-0.00031617,0.,0.001543
 46,0.00121857,-0.00000012,-0.00208694,0.00012684,-0.00000017,-0.038728
 13,0.02419134,0.00000041,0.69188007,-0.00029193,0.00007840,0.,0.000284
 56,-0.00124914,0.,-0.00321660,-0.00134760,-0.00000003,-0.00024689,-0.0
 0020618,0.,0.00026199,-0.00013393,0.,0.00026758,-0.00003600,0.,0.00001
 153,-0.00011575,0.,0.00010067,0.00004612,0.,0.00008064,-0.00008168,0.,
 0.00005817,-0.00004801,0.,0.01103296,-0.01065505,-0.00000018,-0.000218
 58,-0.00126392,0.,-0.05760961,-0.01782825,0.00000053,0.00889595,-0.009
 06952,-0.00000009,-0.11998271,-0.12311132,0.00000177,-0.00372886,0.005
 59045,0.00000008,-0.00255327,-0.00080275,-0.00000006,0.03023112,0.0244
 1527,-0.00000032,0.00036216,-0.00996153,0.00000009,-0.00010619,0.00051
 640,0.,-0.00292506,0.00286383,-0.00000004,0.00130844,0.00046184,0.,-0.
 00307895,0.00566868,0.00000011,0.14417822,0.14609684,0.00000002,-0.000
 00005,-0.00019988,-0.00000003,0.00000002,-0.00006688,-0.00000010,-0.00
 000004,0.00166043,0.00000004,-0.00000001,0.00003827,0.,0.00000006,-0.0
 0010108,-0.00000005,0.,0.00004482,0.,0.,0.00002200,0.,0.,0.00002017,0.
 ,0.,-0.00001511,0.,0.,0.00000147,-0.00000015,-0.00000031,0.00084709,0.
 00000003,0.00000008,-0.00006247,-0.00000012,0.00000055,0.01945985,0.00
 000027,-0.00000016,0.00451854,0.00000917,0.00000187,-0.06777023,0.0000
 0004,0.00000035,-0.00017656,0.,0.,-0.00014325,0.00000063,-0.00000011,0
 .01837992,-0.00000031,-0.00000023,0.00440147,0.,0.,-0.00038008,0.,-0.0
 0000006,-0.00303720,0.00000001,0.,-0.00183516,0.00000052,-0.00000036,-
 0.00272364,-0.00000977,-0.00000185,0.03135684,0.00132552,0.00034692,0.
 00000001,-0.00293308,0.00578956,0.00000006,0.01585844,0.02157576,0.000
 00007,0.00152857,0.00045513,-0.00000002,-0.00028428,0.00007636,0.,-0.0
 0040488,-0.00004764,0.,-0.00017768,0.00033628,0.,-0.00140548,-0.001014
 73,-0.00000001,-0.00001498,0.00000161,0.,-0.00006451,-0.00006356,0.,-0
 .17306618,-0.20295005,-0.00000013,-0.00390794,-0.00081413,0.00000004,0
 .00054244,0.00289620,-0.00000001,0.00026501,-0.00005602,0.,-0.00935093
 ,-0.00127996,0.00000013,0.00009061,0.00076546,0.,0.00018256,0.00008142
 ,0.,0.00223210,-0.00018813,0.,-0.00057821,-0.00103219,0.00000002,0.000
 06226,0.00000633,0.,-0.00001694,-0.00004079,0.,0.00012348,-0.00001985,
 0.,-0.00426726,-0.02905211,-0.00000022,0.00629175,-0.00311533,-0.00000
 019,0.16796957,-0.00128659,0.00040503,0.,0.00348938,-0.00212166,-0.000
 00003,-0.00761015,-0.02089340,-0.00000009,-0.00142360,0.00226232,0.000
 00002,-0.00035797,-0.00147381,-0.00000002,0.00091766,0.00067216,0.,0.0
 0013513,-0.00009457,0.,0.00023451,0.00026111,0.,-0.00008590,0.00012424
 ,0.,0.00002629,0.00005705,0.,-0.18952524,-0.39698413,-0.00000103,0.001
 27516,0.00289654,-0.00000001,0.00616062,-0.00907296,-0.00000010,-0.004
 88614,-0.00016876,0.,0.01616631,0.00815095,-0.00000022,0.00149111,-0.0
 0463206,0.,-0.00025304,0.00005822,0.00000001,-0.00610760,0.00095365,0.
 00000006,0.00312384,0.00425420,-0.00000004,0.00002371,-0.00009301,0.,0
 .00000747,-0.00006725,0.,-0.00011448,-0.00001229,-0.00000002,-0.012545
 44,0.01274240,0.00000019,-0.01619852,-0.00982718,0.00000025,0.20734347
 ,0.41260324,-0.00000002,0.,0.00075118,0.00000003,-0.00000008,0.0022409
 0,-0.00000009,-0.00000022,0.00011991,-0.00000006,0.00000003,-0.0008256
 6,0.,-0.00000002,-0.00034182,0.00000002,0.,-0.00004408,0.,0.,-0.000031
 22,0.,0.,0.00019082,0.,0.,0.00006132,0.,0.,0.00000377,0.,-0.00000087,-
 0.00617349,0.,-0.00000013,0.00482476,0.00000007,-0.00000010,-0.0031109
 1,-0.00000006,0.00000001,-0.00059209,0.00000032,0.00000004,0.00007675,
 0.00000002,-0.00000006,0.00011099,0.,0.,-0.00008623,-0.00000007,0.0000
 0004,0.00128965,0.00000004,0.00000005,-0.00003730,0.,0.,0.00018352,0.,
 0.,-0.00002087,0.,0.,-0.00019584,-0.00000013,0.00000031,-0.00217006,-0
 .00000032,0.,-0.00423931,0.00000025,0.00000101,0.00801530\\0.00040155,
 0.00465662,0.00000002,0.00651930,0.00984540,0.00000003,0.01234701,0.00
 018697,0.00000028,-0.00056098,0.00114531,0.,-0.00061155,-0.00449007,0.
 ,0.00074107,0.00081702,0.,-0.00021638,0.00069013,-0.00000003,0.0004356
 8,-0.00010580,0.00000001,0.00001538,0.00000889,0.,0.00001091,0.0001098
 9,0.,-0.01591897,0.01133511,-0.00000028,0.00476098,0.01384749,0.000000
 08,-0.01019643,0.00639393,-0.00000148,0.01053810,-0.00165846,-0.000000
 30,0.01701883,0.00410215,0.00000622,-0.00332548,0.00775276,0.00000034,
 0.00030814,-0.00010578,-0.00000010,-0.00511525,0.00020911,-0.00000212,
 -0.00713639,-0.00277492,-0.00000036,-0.00023013,-0.00024043,-0.0000000
 1,-0.00061581,-0.00002461,-0.00000003,-0.00075740,-0.00035951,0.000000
 26,-0.00894684,-0.00635151,0.00000008,-0.00960739,-0.01226906,-0.00000
 216,0.01014209,-0.03272064,-0.00000046\\\@
 The archive entry for this job was punched.


 A politician is a person who can make waves and then
 make you think he's the only one who can save the ship.
 -- Ivern Ball
 Job cpu time:       0 days  1 hours  0 minutes  4.8 seconds.
 Elapsed time:       0 days  0 hours  6 minutes 18.3 seconds.
 File lengths (MBytes):  RWF=    544 Int=      0 D2E=      0 Chk=     40 Scr=      8
 Normal termination of Gaussian 16 at Wed Oct 28 00:27:37 2020.
