 Entering Gaussian System, Link 0=g16
 Initial command:
 /gpfs/loomis/apps/avx/software/Gaussian/16-C.01_AVX/g16/l1.exe "/home/fas/batista/pev4/scratch60/gauss-scratch/Gau-49809.inp" -scrdir="/home/fas/batista/pev4/scratch60/gauss-scratch/"
 Entering Link 1 = /gpfs/loomis/apps/avx/software/Gaussian/16-C.01_AVX/g16/l1.exe PID=     49810.
  
 Copyright (c) 1988-2019, Gaussian, Inc.  All Rights Reserved.
  
 This is part of the Gaussian(R) 16 program.  It is based on
 the Gaussian(R) 09 system (copyright 2009, Gaussian, Inc.),
 the Gaussian(R) 03 system (copyright 2003, Gaussian, Inc.),
 the Gaussian(R) 98 system (copyright 1998, Gaussian, Inc.),
 the Gaussian(R) 94 system (copyright 1995, Gaussian, Inc.),
 the Gaussian 92(TM) system (copyright 1992, Gaussian, Inc.),
 the Gaussian 90(TM) system (copyright 1990, Gaussian, Inc.),
 the Gaussian 88(TM) system (copyright 1988, Gaussian, Inc.),
 the Gaussian 86(TM) system (copyright 1986, Carnegie Mellon
 University), and the Gaussian 82(TM) system (copyright 1983,
 Carnegie Mellon University). Gaussian is a federally registered
 trademark of Gaussian, Inc.
  
 This software contains proprietary and confidential information,
 including trade secrets, belonging to Gaussian, Inc.
  
 This software is provided under written license and may be
 used, copied, transmitted, or stored only in accord with that
 written license.
  
 The following legend is applicable only to US Government
 contracts under FAR:
  
                    RESTRICTED RIGHTS LEGEND
  
 Use, reproduction and disclosure by the US Government is
 subject to restrictions as set forth in subparagraphs (a)
 and (c) of the Commercial Computer Software - Restricted
 Rights clause in FAR 52.227-19.
  
 Gaussian, Inc.
 340 Quinnipiac St., Bldg. 40, Wallingford CT 06492
  
  
 ---------------------------------------------------------------
 Warning -- This program may not be used in any manner that
 competes with the business of Gaussian, Inc. or will provide
 assistance to any competitor of Gaussian, Inc.  The licensee
 of this program is prohibited from giving any competitor of
 Gaussian, Inc. access to this program.  By using this program,
 the user acknowledges that Gaussian, Inc. is engaged in the
 business of creating and licensing software in the field of
 computational chemistry and represents and warrants to the
 licensee that it is not a competitor of Gaussian, Inc. and that
 it will not use this program in any manner prohibited above.
 ---------------------------------------------------------------
  

 Cite this work as:
 Gaussian 16, Revision C.01,
 M. J. Frisch, G. W. Trucks, H. B. Schlegel, G. E. Scuseria, 
 M. A. Robb, J. R. Cheeseman, G. Scalmani, V. Barone, 
 G. A. Petersson, H. Nakatsuji, X. Li, M. Caricato, A. V. Marenich, 
 J. Bloino, B. G. Janesko, R. Gomperts, B. Mennucci, H. P. Hratchian, 
 J. V. Ortiz, A. F. Izmaylov, J. L. Sonnenberg, D. Williams-Young, 
 F. Ding, F. Lipparini, F. Egidi, J. Goings, B. Peng, A. Petrone, 
 T. Henderson, D. Ranasinghe, V. G. Zakrzewski, J. Gao, N. Rega, 
 G. Zheng, W. Liang, M. Hada, M. Ehara, K. Toyota, R. Fukuda, 
 J. Hasegawa, M. Ishida, T. Nakajima, Y. Honda, O. Kitao, H. Nakai, 
 T. Vreven, K. Throssell, J. A. Montgomery, Jr., J. E. Peralta, 
 F. Ogliaro, M. J. Bearpark, J. J. Heyd, E. N. Brothers, K. N. Kudin, 
 V. N. Staroverov, T. A. Keith, R. Kobayashi, J. Normand, 
 K. Raghavachari, A. P. Rendell, J. C. Burant, S. S. Iyengar, 
 J. Tomasi, M. Cossi, J. M. Millam, M. Klene, C. Adamo, R. Cammi, 
 J. W. Ochterski, R. L. Martin, K. Morokuma, O. Farkas, 
 J. B. Foresman, and D. J. Fox, Gaussian, Inc., Wallingford CT, 2019.
 
 ******************************************
 Gaussian 16:  ES64L-G16RevC.01  3-Jul-2019
                27-Oct-2020 
 ******************************************
 %chk=config_2_10.chk
 %mem=58GB
 %nprocshared=10
 Will use up to   10 processors via shared memory.
 ----------------------------------------------------------------------
 #p opt=addgic freq wb97xd/cc-pvdz nosymm int=ultrafine scrf=(solvent=C
 arbonTetraChloride)
 ----------------------------------------------------------------------
 1/18=20,19=15,26=6,38=1,145=903/1,3;
 2/9=110,12=2,15=1,17=6,18=5,40=1/2;
 3/5=16,11=2,25=1,30=1,70=2201,71=1,72=11,74=-58,75=-5/1,2,3;
 4//1;
 5/5=2,38=5,53=11/2;
 6/7=2,8=2,9=2,10=2,28=1/1;
 7/30=1/1,2,3,16;
 1/18=20,19=15,26=6,145=903/3(2);
 2/9=110,15=1/2;
 99//99;
 2/9=110,15=1/2;
 3/5=16,11=2,25=1,30=1,70=2205,71=1,72=11,74=-58,75=-5/1,2,3;
 4/5=5,16=3,69=1/1;
 5/5=2,38=5,53=11/2;
 7/30=1/1,2,3,16;
 1/18=20,19=15,26=6,145=903/3(-5);
 2/9=110,15=1/2;
 6/7=2,8=2,9=2,10=2,19=2,28=1/1;
 99/9=1/99;
 Leave Link    1 at Tue Oct 27 22:50:51 2020, MaxMem=  7784628224 cpu:               4.8 elap:               0.5
 (Enter /gpfs/loomis/apps/avx/software/Gaussian/16-C.01_AVX/g16/l101.exe)
 ------------------------------------------------
 NM 2D-scan of HBT TD-WB97XD pVDZ in CTC Relaxed.
 ------------------------------------------------
 Symbolic Z-matrix:
 Charge =  0 Multiplicity = 1
 C                     1.63201  -3.26669  -0.00002 
 C                     0.99273  -2.03318  -0.00002 
 C                     1.71882  -0.7993   -0.00002 
 C                     3.14423  -0.85717  -0.00002 
 C                     3.76505  -2.09124  -0.00002 
 C                     3.02478  -3.29395  -0.00002 
 H                     1.05499  -4.19229  -0.00002 
 H                     3.71621   0.07162  -0.00003 
 H                     4.85597  -2.14202  -0.00002 
 H                     3.5463   -4.25229  -0.00002 
 N                     0.96729   0.29879  -0.00002 
 S                    -0.72495  -1.71152  -0.00002 
 C                    -1.35031   1.03003   0.00001 
 C                    -2.75689   0.80318   0.00001 
 C                    -0.90926   2.43252   0.00003 
 C                    -3.64503   1.86113   0.00003 
 H                    -3.12487  -0.22368  -0.00001 
 C                    -1.83237   3.48565   0.00005 
 C                    -3.19609   3.20922   0.00005 
 H                    -4.71761   1.65926   0.00003 
 H                    -1.45291   4.508     0.00007 
 H                    -3.9208    4.02386   0.00006 
 C                    -0.36657   0.02733  -0.00002 
 O                     0.38915   2.68319   0.00004 
 H                     0.79252   2.0649    0.00003 
 
 Initializing the GIC definitions file.
 Number of initial coordinates =   131
 Number of input entries/lines =    52
 Number of additional coordinates =     2
 Number of removed coordinates =     0
 Number of frozen coordinates =     2
 Number of final active and frozen coordinates =   133
 ITRead=  0  0  0  0  0  0  0  0  0  0  0  0  0  0  0  0  0  0  0  0
 ITRead=  0  0  0  0  0
 MicOpt= -1 -1 -1 -1 -1 -1 -1 -1 -1 -1 -1 -1 -1 -1 -1 -1 -1 -1 -1 -1
 MicOpt= -1 -1 -1 -1 -1
 NAtoms=     25 NQM=       25 NQMF=       0 NMMI=      0 NMMIF=      0
                NMic=       0 NMicF=      0.
                    Isotopes and Nuclear Properties:
 (Nuclear quadrupole moments (NQMom) in fm**2, nuclear magnetic moments (NMagM)
  in nuclear magnetons)

  Atom         1           2           3           4           5           6           7           8           9          10
 IAtWgt=          12          12          12          12          12          12           1           1           1           1
 AtmWgt=  12.0000000  12.0000000  12.0000000  12.0000000  12.0000000  12.0000000   1.0078250   1.0078250   1.0078250   1.0078250
 NucSpn=           0           0           0           0           0           0           1           1           1           1
 AtZEff=  -0.0000000  -0.0000000  -0.0000000  -0.0000000  -0.0000000  -0.0000000  -0.0000000  -0.0000000  -0.0000000  -0.0000000
 NQMom=    0.0000000   0.0000000   0.0000000   0.0000000   0.0000000   0.0000000   0.0000000   0.0000000   0.0000000   0.0000000
 NMagM=    0.0000000   0.0000000   0.0000000   0.0000000   0.0000000   0.0000000   2.7928460   2.7928460   2.7928460   2.7928460
 AtZNuc=   6.0000000   6.0000000   6.0000000   6.0000000   6.0000000   6.0000000   1.0000000   1.0000000   1.0000000   1.0000000

  Atom        11          12          13          14          15          16          17          18          19          20
 IAtWgt=          14          32          12          12          12          12           1          12          12           1
 AtmWgt=  14.0030740  31.9720718  12.0000000  12.0000000  12.0000000  12.0000000   1.0078250  12.0000000  12.0000000   1.0078250
 NucSpn=           2           0           0           0           0           0           1           0           0           1
 AtZEff=  -0.0000000  -0.0000000  -0.0000000  -0.0000000  -0.0000000  -0.0000000  -0.0000000  -0.0000000  -0.0000000  -0.0000000
 NQMom=    2.0440000   0.0000000   0.0000000   0.0000000   0.0000000   0.0000000   0.0000000   0.0000000   0.0000000   0.0000000
 NMagM=    0.4037610   0.0000000   0.0000000   0.0000000   0.0000000   0.0000000   2.7928460   0.0000000   0.0000000   2.7928460
 AtZNuc=   7.0000000  16.0000000   6.0000000   6.0000000   6.0000000   6.0000000   1.0000000   6.0000000   6.0000000   1.0000000

  Atom        21          22          23          24          25
 IAtWgt=           1           1          12          16           1
 AtmWgt=   1.0078250   1.0078250  12.0000000  15.9949146   1.0078250
 NucSpn=           1           1           0           0           1
 AtZEff=  -0.0000000  -0.0000000  -0.0000000  -0.0000000  -0.0000000
 NQMom=    0.0000000   0.0000000   0.0000000   0.0000000   0.0000000
 NMagM=    2.7928460   2.7928460   0.0000000   0.0000000   2.7928460
 AtZNuc=   1.0000000   1.0000000   6.0000000   8.0000000   1.0000000
 Leave Link  101 at Tue Oct 27 22:50:54 2020, MaxMem=  7784628224 cpu:              31.3 elap:               3.2
 (Enter /gpfs/loomis/apps/avx/software/Gaussian/16-C.01_AVX/g16/l103.exe)

 GradGradGradGradGradGradGradGradGradGradGradGradGradGradGradGradGradGrad
 Berny optimization.
 Initialization pass.
                           ----------------------------
                           !    Initial Parameters    !
                           ! (Angstroms and Degrees)  !
 --------------------------                            --------------------------
 ! Name  Definition              Value          Derivative Info.                !
 --------------------------------------------------------------------------------
 ! R1    R(1,2)                  1.3893         estimate D2E/DX2                !
 ! R2    R(1,6)                  1.393          estimate D2E/DX2                !
 ! R3    R(1,7)                  1.0907         estimate D2E/DX2                !
 ! R4    R(2,3)                  1.4317         estimate D2E/DX2                !
 ! R5    R(2,12)                 1.7475         estimate D2E/DX2                !
 ! R6    R(3,4)                  1.4266         estimate D2E/DX2                !
 ! R7    R(3,11)                 1.3306         estimate D2E/DX2                !
 ! R8    R(4,5)                  1.3814         estimate D2E/DX2                !
 ! R9    R(4,8)                  1.0908         estimate D2E/DX2                !
 ! R10   R(5,6)                  1.4123         estimate D2E/DX2                !
 ! R11   R(5,9)                  1.0921         estimate D2E/DX2                !
 ! R12   R(6,10)                 1.0911         estimate D2E/DX2                !
 ! R13   R(11,23)                1.3612         estimate D2E/DX2                !
 ! R14   R(12,23)                1.7754         estimate D2E/DX2                !
 ! R15   R(13,14)                1.4247         estimate D2E/DX2                !
 ! R16   R(13,15)                1.4702         estimate D2E/DX2                !
 ! R17   R(13,23)                1.4047         estimate D2E/DX2                !
 ! R18   R(14,16)                1.3813         estimate D2E/DX2                !
 ! R19   R(14,17)                1.0908         estimate D2E/DX2                !
 ! R20   R(15,18)                1.4004         estimate D2E/DX2                !
 ! R21   R(15,24)                1.3224         estimate D2E/DX2                !
 ! R22   R(16,19)                1.4209         estimate D2E/DX2                !
 ! R23   R(16,20)                1.0914         estimate D2E/DX2                !
 ! R24   R(18,19)                1.3915         estimate D2E/DX2                !
 ! R25   R(18,21)                1.0905         estimate D2E/DX2                !
 ! R26   R(19,22)                1.0903         estimate D2E/DX2                !
 ! R27   R(24,25)                0.7382         estimate D2E/DX2                !
 ! A1    A(2,1,6)              118.5173         estimate D2E/DX2                !
 ! A2    A(2,1,7)              120.6648         estimate D2E/DX2                !
 ! A3    A(6,1,7)              120.8178         estimate D2E/DX2                !
 ! A4    A(1,2,3)              122.1288         estimate D2E/DX2                !
 ! A5    A(1,2,12)             128.0022         estimate D2E/DX2                !
 ! A6    A(3,2,12)             109.869          estimate D2E/DX2                !
 ! A7    A(2,3,4)              118.1505         estimate D2E/DX2                !
 ! A8    A(2,3,11)             115.1367         estimate D2E/DX2                !
 ! A9    A(4,3,11)             126.7127         estimate D2E/DX2                !
 ! A10   A(3,4,5)              119.0306         estimate D2E/DX2                !
 ! A11   A(3,4,8)              119.3015         estimate D2E/DX2                !
 ! A12   A(5,4,8)              121.6678         estimate D2E/DX2                !
 ! A13   A(4,5,6)              121.6819         estimate D2E/DX2                !
 ! A14   A(4,5,9)              119.3708         estimate D2E/DX2                !
 ! A15   A(6,5,9)              118.9473         estimate D2E/DX2                !
 ! A16   A(1,6,5)              120.4908         estimate D2E/DX2                !
 ! A17   A(1,6,10)             119.6758         estimate D2E/DX2                !
 ! A18   A(5,6,10)             119.8334         estimate D2E/DX2                !
 ! A19   A(3,11,23)            112.8846         estimate D2E/DX2                !
 ! A20   A(2,12,23)             88.9607         estimate D2E/DX2                !
 ! A21   A(14,13,15)           116.6185         estimate D2E/DX2                !
 ! A22   A(14,13,23)           125.2916         estimate D2E/DX2                !
 ! A23   A(15,13,23)           118.0899         estimate D2E/DX2                !
 ! A24   A(13,14,16)           120.852          estimate D2E/DX2                !
 ! A25   A(13,14,17)           118.8768         estimate D2E/DX2                !
 ! A26   A(16,14,17)           120.2713         estimate D2E/DX2                !
 ! A27   A(13,15,18)           121.3073         estimate D2E/DX2                !
 ! A28   A(13,15,24)           118.384          estimate D2E/DX2                !
 ! A29   A(18,15,24)           120.3087         estimate D2E/DX2                !
 ! A30   A(14,16,19)           121.568          estimate D2E/DX2                !
 ! A31   A(14,16,20)           119.3547         estimate D2E/DX2                !
 ! A32   A(19,16,20)           119.0773         estimate D2E/DX2                !
 ! A33   A(15,18,19)           119.777          estimate D2E/DX2                !
 ! A34   A(15,18,21)           118.4013         estimate D2E/DX2                !
 ! A35   A(19,18,21)           121.8218         estimate D2E/DX2                !
 ! A36   A(16,19,18)           119.8772         estimate D2E/DX2                !
 ! A37   A(16,19,22)           119.9251         estimate D2E/DX2                !
 ! A38   A(18,19,22)           120.1976         estimate D2E/DX2                !
 ! A39   A(11,23,12)           113.149          estimate D2E/DX2                !
 ! A40   A(11,23,13)           122.9497         estimate D2E/DX2                !
 ! A41   A(12,23,13)           123.9013         estimate D2E/DX2                !
 ! A42   A(15,24,25)           112.1933         estimate D2E/DX2                !
 ! D1    D(6,1,2,3)              0.0            estimate D2E/DX2                !
 ! D2    D(6,1,2,12)          -180.0            estimate D2E/DX2                !
 ! D3    D(7,1,2,3)            180.0            estimate D2E/DX2                !
 ! D4    D(7,1,2,12)             0.0            estimate D2E/DX2                !
 ! D5    D(2,1,6,5)             -0.0001         estimate D2E/DX2                !
 ! D6    D(2,1,6,10)           180.0            estimate D2E/DX2                !
 ! D7    D(7,1,6,5)            180.0            estimate D2E/DX2                !
 ! D8    D(7,1,6,10)             0.0            estimate D2E/DX2                !
 ! D9    D(1,2,3,4)              0.0            estimate D2E/DX2                !
 ! D10   D(1,2,3,11)           180.0            estimate D2E/DX2                !
 ! D11   D(12,2,3,4)          -180.0            estimate D2E/DX2                !
 ! D12   D(12,2,3,11)            0.0            estimate D2E/DX2                !
 ! D13   D(1,2,12,23)          179.9998         estimate D2E/DX2                !
 ! D14   D(3,2,12,23)           -0.0002         estimate D2E/DX2                !
 ! D15   D(2,3,4,5)             -0.0001         estimate D2E/DX2                !
 ! D16   D(2,3,4,8)            180.0            estimate D2E/DX2                !
 ! D17   D(11,3,4,5)           180.0            estimate D2E/DX2                !
 ! D18   D(11,3,4,8)             0.0            estimate D2E/DX2                !
 ! D19   D(2,3,11,23)            0.0003         estimate D2E/DX2                !
 ! D20   D(4,3,11,23)         -179.9998         estimate D2E/DX2                !
 ! D21   D(3,4,5,6)              0.0            estimate D2E/DX2                !
 ! D22   D(3,4,5,9)           -180.0            estimate D2E/DX2                !
 ! D23   D(8,4,5,6)            180.0            estimate D2E/DX2                !
 ! D24   D(8,4,5,9)              0.0            estimate D2E/DX2                !
 ! D25   D(4,5,6,1)              0.0001         estimate D2E/DX2                !
 ! D26   D(4,5,6,10)          -180.0            estimate D2E/DX2                !
 ! D27   D(9,5,6,1)           -180.0            estimate D2E/DX2                !
 ! D28   D(9,5,6,10)             0.0            estimate D2E/DX2                !
 ! D29   D(3,11,23,12)          -0.0005         estimate D2E/DX2                !
 ! D30   D(3,11,23,13)         179.9989         estimate D2E/DX2                !
 ! D31   D(2,12,23,11)           0.0004         estimate D2E/DX2                !
 ! D32   D(2,12,23,13)        -179.9989         estimate D2E/DX2                !
 ! D33   D(15,13,14,16)          0.0003         estimate D2E/DX2                !
 ! D34   D(15,13,14,17)       -179.9998         estimate D2E/DX2                !
 ! D35   D(23,13,14,16)       -179.9998         estimate D2E/DX2                !
 ! D36   D(23,13,14,17)          0.0            estimate D2E/DX2                !
 ! D37   D(14,13,15,18)         -0.0004         estimate D2E/DX2                !
 ! D38   D(14,13,15,24)        179.9994         estimate D2E/DX2                !
 ! D39   D(23,13,15,18)        179.9997         estimate D2E/DX2                !
 ! D40   D(23,13,15,24)         -0.0005         estimate D2E/DX2                !
 ! D41   D(14,13,23,11)        179.9997         estimate D2E/DX2                !
 ! D42   D(14,13,23,12)         -0.0011         estimate D2E/DX2                !
 ! D43   D(15,13,23,11)         -0.0004         estimate D2E/DX2                !
 ! D44   D(15,13,23,12)        179.9988         estimate D2E/DX2                !
 ! D45   D(13,14,16,19)         -0.0001         estimate D2E/DX2                !
 ! D46   D(13,14,16,20)        179.9999         estimate D2E/DX2                !
 ! D47   D(17,14,16,19)       -180.0            estimate D2E/DX2                !
 ! D48   D(17,14,16,20)          0.0            estimate D2E/DX2                !
 ! D49   D(13,15,18,19)          0.0002         estimate D2E/DX2                !
 ! D50   D(13,15,18,21)        180.0            estimate D2E/DX2                !
 ! D51   D(24,15,18,19)       -179.9996         estimate D2E/DX2                !
 ! D52   D(24,15,18,21)          0.0002         estimate D2E/DX2                !
 ! D53   D(13,15,24,25)          0.0007         estimate D2E/DX2                !
 ! D54   D(18,15,24,25)       -179.9995         estimate D2E/DX2                !
 ! D55   D(14,16,19,18)         -0.0001         estimate D2E/DX2                !
 ! D56   D(14,16,19,22)       -180.0            estimate D2E/DX2                !
 ! D57   D(20,16,19,18)        179.9999         estimate D2E/DX2                !
 ! D58   D(20,16,19,22)          0.0            estimate D2E/DX2                !
 ! D59   D(15,18,19,16)          0.0            estimate D2E/DX2                !
 ! D60   D(15,18,19,22)        179.9999         estimate D2E/DX2                !
 ! D61   D(21,18,19,16)       -179.9997         estimate D2E/DX2                !
 ! D62   D(21,18,19,22)          0.0002         estimate D2E/DX2                !
 ! Qtot  GIC-1                 -40.0            Frozen                          !
 ! Ptot  GIC-2                  40.0            Frozen                          !
 --------------------------------------------------------------------------------
 NOTE: GIC-type coordinates are in arbitrary units.
 Trust Radius=3.00D-01 FncErr=5.00D-06 GrdErr=5.00D-06 EigMax=2.50D+02 EigMin=1.00D-04
 Number of steps in this run=    143 maximum allowed number of steps=    150.
 GradGradGradGradGradGradGradGradGradGradGradGradGradGradGradGradGradGrad

 Leave Link  103 at Tue Oct 27 22:50:54 2020, MaxMem=  7784628224 cpu:               0.1 elap:               0.0
 (Enter /gpfs/loomis/apps/avx/software/Gaussian/16-C.01_AVX/g16/l202.exe)
                          Input orientation:                          
 ---------------------------------------------------------------------
 Center     Atomic      Atomic             Coordinates (Angstroms)
 Number     Number       Type             X           Y           Z
 ---------------------------------------------------------------------
      1          6           0        1.632009   -3.266686   -0.000020
      2          6           0        0.992732   -2.033176   -0.000022
      3          6           0        1.718824   -0.799304   -0.000024
      4          6           0        3.144227   -0.857173   -0.000025
      5          6           0        3.765053   -2.091237   -0.000023
      6          6           0        3.024782   -3.293952   -0.000020
      7          1           0        1.054990   -4.192288   -0.000018
      8          1           0        3.716211    0.071616   -0.000027
      9          1           0        4.855974   -2.142017   -0.000023
     10          1           0        3.546296   -4.252294   -0.000018
     11          7           0        0.967286    0.298786   -0.000025
     12         16           0       -0.724953   -1.711521   -0.000022
     13          6           0       -1.350311    1.030029    0.000005
     14          6           0       -2.756886    0.803184    0.000007
     15          6           0       -0.909265    2.432519    0.000033
     16          6           0       -3.645029    1.861127    0.000027
     17          1           0       -3.124866   -0.223681   -0.000010
     18          6           0       -1.832370    3.485649    0.000051
     19          6           0       -3.196095    3.209219    0.000048
     20          1           0       -4.717606    1.659261    0.000026
     21          1           0       -1.452913    4.507995    0.000072
     22          1           0       -3.920805    4.023865    0.000064
     23          6           0       -0.366574    0.027329   -0.000018
     24          8           0        0.389151    2.683188    0.000044
     25          1           0        0.792517    2.064904    0.000026
 ---------------------------------------------------------------------
                    Distance matrix (angstroms):
                    1          2          3          4          5
     1  C    0.000000
     2  C    1.389324   0.000000
     3  C    2.468909   1.431660   0.000000
     4  C    2.844742   2.451921   1.426578   0.000000
     5  C    2.435479   2.772929   2.419947   1.381427   0.000000
     6  C    1.393040   2.391398   2.815811   2.439704   1.412276
     7  H    1.090730   2.160010   3.457314   3.935468   3.429119
     8  H    3.935500   3.442018   2.179004   1.090787   2.163405
     9  H    3.414503   3.864775   3.412417   2.140304   1.092102
    10  H    2.153119   3.383072   3.906763   3.418846   2.172100
    11  N    3.626906   2.332101   1.330643   2.464815   3.679635
    12  S    2.823793   1.747542   2.608483   3.962381   4.506034
    13  C    5.230296   3.856563   3.572961   4.874670   5.992433
    14  C    5.985503   4.701550   4.753940   6.130247   7.135360
    15  C    6.240113   4.853867   4.165517   5.220428   6.504892
    16  C    7.358098   6.055942   5.987388   7.313218   8.398244
    17  H    5.646923   4.497653   4.877773   6.301019   7.138540
    18  C    7.589199   6.199889   5.565231   6.605045   7.901443
    19  C    8.077619   6.710363   6.342293   7.532279   8.749424
    20  H    8.036328   6.800151   6.890005   8.254748   9.274791
    21  H    8.364354   6.983416   6.182826   7.065319   8.412909
    22  H    9.164381   7.799397   7.420807   8.587154   9.821756
    23  C    3.852904   2.468480   2.243258   3.620506   4.643131
    24  O    6.078297   4.754829   3.727705   4.486045   5.847380
    25  H    5.397277   4.102968   3.010271   3.750876   5.109744
                    6          7          8          9         10
     6  C    0.000000
     7  H    2.164969   0.000000
     8  H    3.435858   5.026229   0.000000
     9  H    2.163381   4.318691   2.489825   0.000000
    10  H    1.091053   2.492029   4.327247   2.483651   0.000000
    11  N    4.140176   4.491931   2.758296   4.591232   5.231025
    12  S    4.069963   3.053261   4.785762   5.597506   4.969819
    13  C    6.151280   5.749615   5.156375   6.969925   7.202757
    14  C    7.086198   6.283721   6.514306   8.162711   8.080097
    15  C    6.947603   6.909875   5.193158   7.359644   8.033601
    16  C    8.429782   7.663812   7.575633   9.396394   9.438702
    17  H    6.873481   5.763770   6.847448   8.208156   7.793211
    18  C    8.339959   8.202900   6.514781   8.740971   9.423684
    19  C    8.999474   8.535457   7.591082   9.668068  10.056541
    20  H    9.191240   8.219701   8.581952  10.300638  10.160638
    21  H    8.995562   9.054530   6.811850   9.166500  10.086365
    22  H   10.089183   9.605400   8.599087  10.726134  11.146857
    23  C    4.746809   4.452641   4.083025   5.655180   5.798769
    24  O    6.532439   6.907642   4.229615   6.575341   7.620268
    25  H    5.805199   6.262695   3.538528   5.848920   6.891320
                   11         12         13         14         15
    11  N    0.000000
    12  S    2.627739   0.000000
    13  C    2.430221   2.811969   0.000000
    14  C    3.758175   3.233032   1.424750   0.000000
    15  C    2.841524   4.148137   1.470204   2.463420   0.000000
    16  C    4.869739   4.614181   2.440585   1.381319   2.794798
    17  H    4.125370   2.823695   2.172748   1.090807   3.458943
    18  C    4.241953   5.313845   2.502489   2.837314   1.400431
    19  C    5.079799   5.506381   2.855834   2.445794   2.415130
    20  H    5.845416   5.225270   3.425582   2.139460   3.886051
    21  H    4.855389   6.261974   3.479479   3.927591   2.145497
    22  H    6.145701   6.565678   3.945946   3.424543   3.406135
    23  C    1.361202   1.775397   1.404688   2.513075   2.465655
    24  O    2.453490   4.533729   2.399722   3.664965   1.322391
    25  H    1.774744   4.069903   2.379639   3.766989   1.741035
                   16         17         18         19         20
    16  C    0.000000
    17  H    2.148719   0.000000
    18  C    2.434092   3.928062   0.000000
    19  C    1.420878   3.433639   1.391459   0.000000
    20  H    1.091408   2.466230   3.414716   2.171951   0.000000
    21  H    3.436755   5.018385   1.090495   2.173822   4.332841
    22  H    2.180249   4.321477   2.156673   1.090345   2.495245
    23  C    3.756473   2.769690   3.756133   4.258006   4.647008
    24  O    4.117086   4.560505   2.362011   3.623630   5.208397
    25  H    4.442223   4.536906   2.984719   4.149516   5.525035
                   21         22         23         24         25
    21  H    0.000000
    22  H    2.514930   0.000000
    23  C    4.610478   5.348351   0.000000
    24  O    2.592898   4.513661   2.761287   0.000000
    25  H    3.318230   5.104208   2.344185   0.738227   0.000000
 Symmetry turned off by external request.
 Stoichiometry    C13H9NOS
 Framework group  C1[X(C13H9NOS)]
 Deg. of freedom    69
 Full point group                 C1      NOp   1
 Rotational constants (GHZ):           1.3779296           0.2861594           0.2369510
 Leave Link  202 at Tue Oct 27 22:50:55 2020, MaxMem=  7784628224 cpu:               0.1 elap:               0.0
 (Enter /gpfs/loomis/apps/avx/software/Gaussian/16-C.01_AVX/g16/l301.exe)
 Standard basis: CC-pVDZ (5D, 7F)
 Ernie: Thresh=  0.10000D-02 Tol=  0.10000D-05 Strict=F.
 Ernie:  40 primitive shells out of 425 were deleted.
   273 basis functions,   629 primitive gaussians,   289 cartesian basis functions
    59 alpha electrons       59 beta electrons
       nuclear repulsion energy      1099.3159625015 Hartrees.
 IExCor= 4639 DFT=T Ex+Corr=wB97XD ExCW=0 ScaHFX=  1.000000
 ScaDFX=  1.000000  1.000000  1.000000  1.000000 ScalE2=  1.000000  1.000000
 IRadAn=      5 IRanWt=     -1 IRanGd=            0 ICorTp=0 IEmpDi=121
 HFx  wShort=  0.000000 wLong=  0.200000 cFull=  0.222036 cShort=  0.000000 cLong=  0.777964
 DFx  wShort=  0.000000 wLong=  0.200000 cFull=  0.000000 cShort=  0.000000 cLong=  1.000000
 NAtoms=   25 NActive=   25 NUniq=   25 SFac= 1.00D+00 NAtFMM=   60 NAOKFM=F Big=F
 Integral buffers will be    131072 words long.
 Raffenetti 2 integral format.
 Two-electron integral symmetry is turned off.
 R6Disp:  Grimme-D2 Dispersion energy=       -0.0139183486 Hartrees.
 Nuclear repulsion after empirical dispersion term =     1099.3020441529 Hartrees.
 ------------------------------------------------------------------------------
 Polarizable Continuum Model (PCM)
 =================================
 Model                : PCM.
 Atomic radii         : UFF (Universal Force Field).
 Polarization charges : Total charges.
 Charge compensation  : None.
 Solution method      : On-the-fly selection.
 Cavity type          : Scaled VdW (van der Waals Surface) (Alpha=1.100).
 Cavity algorithm     : GePol (No added spheres)
                        Default sphere list used, NSphG=   25.
                        Lebedev-Laikov grids with approx.  5.0 points / Ang**2.
                        Smoothing algorithm: York/Karplus (Gamma=1.0000).
                        Polarization charges: spherical gaussians, with
                                              point-specific exponents (IZeta= 3).
                        Self-potential: point-specific (ISelfS= 7).
                        Self-field    : sphere-specific E.n sum rule (ISelfD= 2).
 1st derivatives      : Analytical E(r).r(x)/FMM algorithm (CHGder, D1EAlg=3).
                        Cavity 1st derivative terms included.
 Solvent              : CarbonTetraChloride, Eps=   2.228000 Eps(inf)=   2.131892
 ------------------------------------------------------------------------------
 GePol: Number of generator spheres                  =      25
 GePol: Total number of spheres                      =      25
 GePol: Number of exposed spheres                    =      25 (100.00%)
 GePol: Number of points                             =    2170
 GePol: Average weight of points                     =       0.13
 GePol: Minimum weight of points                     =   0.93D-11
 GePol: Maximum weight of points                     =    0.20577
 GePol: Number of points with low weight             =     118
 GePol: Fraction of low-weight points (<1% of avg)   =       5.44%
 GePol: Cavity surface area                          =    273.222 Ang**2
 GePol: Cavity volume                                =    292.611 Ang**3
 Leave Link  301 at Tue Oct 27 22:50:55 2020, MaxMem=  7784628224 cpu:               0.8 elap:               0.1
 (Enter /gpfs/loomis/apps/avx/software/Gaussian/16-C.01_AVX/g16/l302.exe)
 NPDir=0 NMtPBC=     1 NCelOv=     1 NCel=       1 NClECP=     1 NCelD=      1
         NCelK=      1 NCelE2=     1 NClLst=     1 CellRange=     0.0.
 One-electron integrals computed using PRISM.
 NBasis=   273 RedAO= T EigKep=  3.18D-04  NBF=   273
 NBsUse=   273 1.00D-06 EigRej= -1.00D+00 NBFU=   273
 Precomputing XC quadrature grid using
 IXCGrd= 4 IRadAn=           5 IRanWt=          -1 IRanGd=           0 AccXCQ= 0.00D+00.
 Generated NRdTot=       0 NPtTot=           0 NUsed=           0 NTot=          32
 NSgBfM=   288   288   288   288   288 MxSgAt=    25 MxSgA2=    25.
 Leave Link  302 at Tue Oct 27 22:50:55 2020, MaxMem=  7784628224 cpu:               2.5 elap:               0.3
 (Enter /gpfs/loomis/apps/avx/software/Gaussian/16-C.01_AVX/g16/l303.exe)
 DipDrv:  MaxL=1.
 Leave Link  303 at Tue Oct 27 22:50:55 2020, MaxMem=  7784628224 cpu:               0.4 elap:               0.1
 (Enter /gpfs/loomis/apps/avx/software/Gaussian/16-C.01_AVX/g16/l401.exe)
 ExpMin= 1.22D-01 ExpMax= 1.11D+05 ExpMxC= 1.07D+03 IAcc=3 IRadAn=         5 AccDes= 0.00D+00
 Harris functional with IExCor= 4639 and IRadAn=       5 diagonalized for initial guess.
 HarFok:  IExCor= 4639 AccDes= 0.00D+00 IRadAn=         5 IDoV= 1 UseB2=F ITyADJ=14
 ICtDFT=  3500011 ScaDFX=  1.000000  1.000000  1.000000  1.000000
 FoFCou: FMM=F IPFlag=           0 FMFlag=      100000 FMFlg1=           0
         NFxFlg=           0 DoJE=T BraDBF=F KetDBF=T FulRan=T
         wScrn=  0.000000 ICntrl=       500 IOpCl=  0 I1Cent=   200000004 NGrid=           0
         NMat0=    1 NMatS0=      1 NMatT0=    0 NMatD0=    1 NMtDS0=    0 NMtDT0=    0
 Symmetry not used in FoFCou.
 Harris En= -994.335014970862    
 JPrj=0 DoOrth=F DoCkMO=F.
 Leave Link  401 at Tue Oct 27 22:50:56 2020, MaxMem=  7784628224 cpu:              13.7 elap:               1.4
 (Enter /gpfs/loomis/apps/avx/software/Gaussian/16-C.01_AVX/g16/l502.exe)
 Two-electron integral symmetry not used.
 Closed shell SCF:
 Using DIIS extrapolation, IDIIS=  1040.
 NGot=  7784628224 LenX=  7784455381 LenY=  7784371419
 Requested convergence on RMS density matrix=1.00D-08 within 128 cycles.
 Requested convergence on MAX density matrix=1.00D-06.
 Requested convergence on             energy=1.00D-06.
 No special actions if energy rises.
 Fock matrices will be formed incrementally for  20 cycles.

 Cycle   1  Pass 1  IDiag  1:
 FoFJK:  IHMeth= 1 ICntrl=       0 DoSepK=T KAlg= 0 I1Cent=           0 FoldK=F
 IRaf=         1 NMat=       1 IRICut=       1 DoRegI=T DoRafI=F ISym2E= 0 IDoP0=0 IntGTp=1.
 FoFCou: FMM=F IPFlag=           0 FMFlag=      100000 FMFlg1=           0
         NFxFlg=           0 DoJE=T BraDBF=F KetDBF=F FulRan=T
         wScrn=  0.000000 ICntrl=       500 IOpCl=  0 I1Cent=           0 NGrid=           0
         NMat0=    1 NMatS0=      1 NMatT0=    0 NMatD0=    1 NMtDS0=    0 NMtDT0=    0
 Symmetry not used in FoFCou.
 Inv3:  Mode=1 IEnd=    14126700.
 Iteration    1 A*A^-1 deviation from unit magnitude is 6.66D-15 for   2154.
 Iteration    1 A*A^-1 deviation from orthogonality  is 2.61D-15 for   2091     99.
 Iteration    1 A^-1*A deviation from unit magnitude is 6.44D-15 for   2154.
 Iteration    1 A^-1*A deviation from orthogonality  is 1.50D-15 for   1873    329.
 E= -1028.50731403604    
 DIIS: error= 2.88D-02 at cycle   1 NSaved=   1.
 NSaved= 1 IEnMin= 1 EnMin= -1028.50731403604     IErMin= 1 ErrMin= 2.88D-02
 ErrMax= 2.88D-02  0.00D+00 EMaxC= 1.00D-01 BMatC= 3.70D-01 BMatP= 3.70D-01
 IDIUse=3 WtCom= 7.12D-01 WtEn= 2.88D-01
 Coeff-Com:  0.100D+01
 Coeff-En:   0.100D+01
 Coeff:      0.100D+01
 Gap=     0.363 Goal=   None    Shift=    0.000
 GapD=    0.363 DampG=1.000 DampE=0.500 DampFc=0.5000 IDamp=-1.
 Damping current iteration by 5.00D-01
 RMSDP=3.40D-03 MaxDP=2.25D-01              OVMax= 1.76D-01

 Cycle   2  Pass 1  IDiag  1:
 RMSU=  1.70D-03    CP:  9.94D-01
 E= -1028.61621170077     Delta-E=       -0.108897664731 Rises=F Damp=T
 DIIS: error= 1.14D-02 at cycle   2 NSaved=   2.
 NSaved= 2 IEnMin= 2 EnMin= -1028.61621170077     IErMin= 2 ErrMin= 1.14D-02
 ErrMax= 1.14D-02  0.00D+00 EMaxC= 1.00D-01 BMatC= 5.68D-02 BMatP= 3.70D-01
 IDIUse=3 WtCom= 8.86D-01 WtEn= 1.14D-01
 Coeff-Com: -0.337D+00 0.134D+01
 Coeff-En:   0.000D+00 0.100D+01
 Coeff:     -0.299D+00 0.130D+01
 Gap=     0.304 Goal=   None    Shift=    0.000
 RMSDP=1.13D-03 MaxDP=2.05D-02 DE=-1.09D-01 OVMax= 1.27D-01

 Cycle   3  Pass 1  IDiag  1:
 RMSU=  1.06D-03    CP:  9.91D-01  1.21D+00
 E= -1028.71069056108     Delta-E=       -0.094478860306 Rises=F Damp=F
 DIIS: error= 6.31D-03 at cycle   3 NSaved=   3.
 NSaved= 3 IEnMin= 3 EnMin= -1028.71069056108     IErMin= 3 ErrMin= 6.31D-03
 ErrMax= 6.31D-03  0.00D+00 EMaxC= 1.00D-01 BMatC= 1.14D-02 BMatP= 5.68D-02
 IDIUse=3 WtCom= 9.37D-01 WtEn= 6.31D-02
 Coeff-Com: -0.208D+00 0.484D+00 0.724D+00
 Coeff-En:   0.000D+00 0.000D+00 0.100D+01
 Coeff:     -0.195D+00 0.454D+00 0.741D+00
 Gap=     0.264 Goal=   None    Shift=    0.000
 RMSDP=4.94D-04 MaxDP=1.93D-02 DE=-9.45D-02 OVMax= 4.01D-02

 Cycle   4  Pass 1  IDiag  1:
 RMSU=  3.61D-04    CP:  9.89D-01  1.39D+00  8.48D-01
 E= -1028.72209914241     Delta-E=       -0.011408581335 Rises=F Damp=F
 DIIS: error= 2.15D-03 at cycle   4 NSaved=   4.
 NSaved= 4 IEnMin= 4 EnMin= -1028.72209914241     IErMin= 4 ErrMin= 2.15D-03
 ErrMax= 2.15D-03  0.00D+00 EMaxC= 1.00D-01 BMatC= 1.68D-03 BMatP= 1.14D-02
 IDIUse=3 WtCom= 9.79D-01 WtEn= 2.15D-02
 Coeff-Com: -0.807D-01 0.161D+00 0.372D+00 0.548D+00
 Coeff-En:   0.000D+00 0.000D+00 0.000D+00 0.100D+01
 Coeff:     -0.790D-01 0.158D+00 0.364D+00 0.558D+00
 Gap=     0.262 Goal=   None    Shift=    0.000
 RMSDP=1.55D-04 MaxDP=9.21D-03 DE=-1.14D-02 OVMax= 1.11D-02

 Cycle   5  Pass 1  IDiag  1:
 RMSU=  1.01D-04    CP:  9.89D-01  1.39D+00  9.17D-01  7.46D-01
 E= -1028.72387055672     Delta-E=       -0.001771414310 Rises=F Damp=F
 DIIS: error= 4.59D-04 at cycle   5 NSaved=   5.
 NSaved= 5 IEnMin= 5 EnMin= -1028.72387055672     IErMin= 5 ErrMin= 4.59D-04
 ErrMax= 4.59D-04  0.00D+00 EMaxC= 1.00D-01 BMatC= 6.97D-05 BMatP= 1.68D-03
 IDIUse=3 WtCom= 9.95D-01 WtEn= 4.59D-03
 Coeff-Com: -0.609D-02 0.639D-02 0.570D-01 0.196D+00 0.747D+00
 Coeff-En:   0.000D+00 0.000D+00 0.000D+00 0.000D+00 0.100D+01
 Coeff:     -0.606D-02 0.636D-02 0.567D-01 0.195D+00 0.748D+00
 Gap=     0.263 Goal=   None    Shift=    0.000
 RMSDP=4.91D-05 MaxDP=1.56D-03 DE=-1.77D-03 OVMax= 4.53D-03

 Cycle   6  Pass 1  IDiag  1:
 RMSU=  3.38D-05    CP:  9.89D-01  1.40D+00  9.32D-01  8.28D-01  1.03D+00
 E= -1028.72398630923     Delta-E=       -0.000115752507 Rises=F Damp=F
 DIIS: error= 1.56D-04 at cycle   6 NSaved=   6.
 NSaved= 6 IEnMin= 6 EnMin= -1028.72398630923     IErMin= 6 ErrMin= 1.56D-04
 ErrMax= 1.56D-04  0.00D+00 EMaxC= 1.00D-01 BMatC= 9.50D-06 BMatP= 6.97D-05
 IDIUse=3 WtCom= 9.98D-01 WtEn= 1.56D-03
 Coeff-Com:  0.156D-01-0.324D-01-0.573D-01-0.446D-01 0.214D+00 0.905D+00
 Coeff-En:   0.000D+00 0.000D+00 0.000D+00 0.000D+00 0.000D+00 0.100D+01
 Coeff:      0.156D-01-0.324D-01-0.572D-01-0.446D-01 0.213D+00 0.905D+00
 Gap=     0.264 Goal=   None    Shift=    0.000
 RMSDP=3.17D-05 MaxDP=1.55D-03 DE=-1.16D-04 OVMax= 2.93D-03

 Cycle   7  Pass 1  IDiag  1:
 RMSU=  1.70D-05    CP:  9.89D-01  1.40D+00  9.45D-01  8.69D-01  1.20D+00
                    CP:  1.19D+00
 E= -1028.72401391773     Delta-E=       -0.000027608502 Rises=F Damp=F
 DIIS: error= 1.12D-04 at cycle   7 NSaved=   7.
 NSaved= 7 IEnMin= 7 EnMin= -1028.72401391773     IErMin= 7 ErrMin= 1.12D-04
 ErrMax= 1.12D-04  0.00D+00 EMaxC= 1.00D-01 BMatC= 2.06D-06 BMatP= 9.50D-06
 IDIUse=3 WtCom= 9.99D-01 WtEn= 1.12D-03
 Coeff-Com:  0.732D-02-0.141D-01-0.314D-01-0.455D-01-0.226D-01 0.379D+00
 Coeff-Com:  0.727D+00
 Coeff-En:   0.000D+00 0.000D+00 0.000D+00 0.000D+00 0.000D+00 0.000D+00
 Coeff-En:   0.100D+01
 Coeff:      0.731D-02-0.141D-01-0.313D-01-0.455D-01-0.226D-01 0.379D+00
 Coeff:      0.728D+00
 Gap=     0.264 Goal=   None    Shift=    0.000
 RMSDP=1.06D-05 MaxDP=5.54D-04 DE=-2.76D-05 OVMax= 1.29D-03

 Cycle   8  Pass 1  IDiag  1:
 RMSU=  6.96D-06    CP:  9.89D-01  1.40D+00  9.47D-01  8.74D-01  1.24D+00
                    CP:  1.37D+00  1.05D+00
 E= -1028.72401826946     Delta-E=       -0.000004351728 Rises=F Damp=F
 DIIS: error= 3.43D-05 at cycle   8 NSaved=   8.
 NSaved= 8 IEnMin= 8 EnMin= -1028.72401826946     IErMin= 8 ErrMin= 3.43D-05
 ErrMax= 3.43D-05  0.00D+00 EMaxC= 1.00D-01 BMatC= 2.44D-07 BMatP= 2.06D-06
 IDIUse=1 WtCom= 1.00D+00 WtEn= 0.00D+00
 Coeff-Com: -0.886D-03 0.208D-02 0.193D-02-0.309D-02-0.391D-01-0.476D-01
 Coeff-Com:  0.217D+00 0.869D+00
 Coeff:     -0.886D-03 0.208D-02 0.193D-02-0.309D-02-0.391D-01-0.476D-01
 Coeff:      0.217D+00 0.869D+00
 Gap=     0.264 Goal=   None    Shift=    0.000
 RMSDP=4.55D-06 MaxDP=1.38D-04 DE=-4.35D-06 OVMax= 6.18D-04

 Cycle   9  Pass 1  IDiag  1:
 RMSU=  2.17D-06    CP:  9.89D-01  1.40D+00  9.47D-01  8.75D-01  1.24D+00
                    CP:  1.43D+00  1.24D+00  1.10D+00
 E= -1028.72401893733     Delta-E=       -0.000000667865 Rises=F Damp=F
 DIIS: error= 1.57D-05 at cycle   9 NSaved=   9.
 NSaved= 9 IEnMin= 9 EnMin= -1028.72401893733     IErMin= 9 ErrMin= 1.57D-05
 ErrMax= 1.57D-05  0.00D+00 EMaxC= 1.00D-01 BMatC= 4.97D-08 BMatP= 2.44D-07
 IDIUse=1 WtCom= 1.00D+00 WtEn= 0.00D+00
 Coeff-Com: -0.128D-02 0.259D-02 0.482D-02 0.523D-02-0.120D-01-0.714D-01
 Coeff-Com: -0.828D-02 0.346D+00 0.734D+00
 Coeff:     -0.128D-02 0.259D-02 0.482D-02 0.523D-02-0.120D-01-0.714D-01
 Coeff:     -0.828D-02 0.346D+00 0.734D+00
 Gap=     0.264 Goal=   None    Shift=    0.000
 RMSDP=1.75D-06 MaxDP=5.54D-05 DE=-6.68D-07 OVMax= 1.62D-04

 Cycle  10  Pass 1  IDiag  1:
 RMSU=  9.26D-07    CP:  9.89D-01  1.40D+00  9.47D-01  8.74D-01  1.25D+00
                    CP:  1.45D+00  1.28D+00  1.25D+00  1.08D+00
 E= -1028.72401904894     Delta-E=       -0.000000111613 Rises=F Damp=F
 DIIS: error= 6.40D-06 at cycle  10 NSaved=  10.
 NSaved=10 IEnMin=10 EnMin= -1028.72401904894     IErMin=10 ErrMin= 6.40D-06
 ErrMax= 6.40D-06  0.00D+00 EMaxC= 1.00D-01 BMatC= 6.29D-09 BMatP= 4.97D-08
 IDIUse=1 WtCom= 1.00D+00 WtEn= 0.00D+00
 Coeff-Com: -0.242D-03 0.446D-03 0.115D-02 0.234D-02 0.272D-02-0.190D-01
 Coeff-Com: -0.413D-01-0.340D-01 0.209D+00 0.879D+00
 Coeff:     -0.242D-03 0.446D-03 0.115D-02 0.234D-02 0.272D-02-0.190D-01
 Coeff:     -0.413D-01-0.340D-01 0.209D+00 0.879D+00
 Gap=     0.264 Goal=   None    Shift=    0.000
 RMSDP=9.33D-07 MaxDP=3.15D-05 DE=-1.12D-07 OVMax= 1.36D-04

 Cycle  11  Pass 1  IDiag  1:
 RMSU=  4.25D-07    CP:  9.89D-01  1.40D+00  9.47D-01  8.75D-01  1.25D+00
                    CP:  1.46D+00  1.31D+00  1.30D+00  1.28D+00  1.17D+00
 E= -1028.72401907485     Delta-E=       -0.000000025912 Rises=F Damp=F
 DIIS: error= 2.95D-06 at cycle  11 NSaved=  11.
 NSaved=11 IEnMin=11 EnMin= -1028.72401907485     IErMin=11 ErrMin= 2.95D-06
 ErrMax= 2.95D-06  0.00D+00 EMaxC= 1.00D-01 BMatC= 1.55D-09 BMatP= 6.29D-09
 IDIUse=1 WtCom= 1.00D+00 WtEn= 0.00D+00
 Coeff-Com:  0.145D-03-0.302D-03-0.474D-03-0.670D-04 0.291D-02 0.425D-02
 Coeff-Com: -0.895D-02-0.538D-01-0.690D-01 0.302D+00 0.823D+00
 Coeff:      0.145D-03-0.302D-03-0.474D-03-0.670D-04 0.291D-02 0.425D-02
 Coeff:     -0.895D-02-0.538D-01-0.690D-01 0.302D+00 0.823D+00
 Gap=     0.264 Goal=   None    Shift=    0.000
 RMSDP=3.61D-07 MaxDP=7.53D-06 DE=-2.59D-08 OVMax= 5.47D-05

 Cycle  12  Pass 1  IDiag  1:
 RMSU=  1.62D-07    CP:  9.89D-01  1.40D+00  9.47D-01  8.75D-01  1.25D+00
                    CP:  1.46D+00  1.31D+00  1.32D+00  1.36D+00  1.41D+00
                    CP:  1.13D+00
 E= -1028.72401907992     Delta-E=       -0.000000005066 Rises=F Damp=F
 DIIS: error= 9.48D-07 at cycle  12 NSaved=  12.
 NSaved=12 IEnMin=12 EnMin= -1028.72401907992     IErMin=12 ErrMin= 9.48D-07
 ErrMax= 9.48D-07  0.00D+00 EMaxC= 1.00D-01 BMatC= 2.76D-10 BMatP= 1.55D-09
 IDIUse=1 WtCom= 1.00D+00 WtEn= 0.00D+00
 Coeff-Com:  0.104D-03-0.204D-03-0.441D-03-0.566D-03 0.489D-03 0.585D-02
 Coeff-Com:  0.683D-02-0.842D-02-0.897D-01-0.108D+00 0.220D+00 0.974D+00
 Coeff:      0.104D-03-0.204D-03-0.441D-03-0.566D-03 0.489D-03 0.585D-02
 Coeff:      0.683D-02-0.842D-02-0.897D-01-0.108D+00 0.220D+00 0.974D+00
 Gap=     0.264 Goal=   None    Shift=    0.000
 RMSDP=2.27D-07 MaxDP=5.01D-06 DE=-5.07D-09 OVMax= 3.47D-05

 Cycle  13  Pass 1  IDiag  1:
 RMSU=  6.93D-08    CP:  9.89D-01  1.40D+00  9.47D-01  8.75D-01  1.25D+00
                    CP:  1.46D+00  1.31D+00  1.33D+00  1.41D+00  1.54D+00
                    CP:  1.42D+00  1.27D+00
 E= -1028.72401908123     Delta-E=       -0.000000001311 Rises=F Damp=F
 DIIS: error= 4.48D-07 at cycle  13 NSaved=  13.
 NSaved=13 IEnMin=13 EnMin= -1028.72401908123     IErMin=13 ErrMin= 4.48D-07
 ErrMax= 4.48D-07  0.00D+00 EMaxC= 1.00D-01 BMatC= 3.37D-11 BMatP= 2.76D-10
 IDIUse=1 WtCom= 1.00D+00 WtEn= 0.00D+00
 Coeff-Com:  0.245D-05-0.243D-05-0.351D-04-0.120D-03-0.218D-03 0.835D-03
 Coeff-Com:  0.304D-02 0.734D-02-0.130D-01-0.647D-01-0.850D-01 0.245D+00
 Coeff-Com:  0.907D+00
 Coeff:      0.245D-05-0.243D-05-0.351D-04-0.120D-03-0.218D-03 0.835D-03
 Coeff:      0.304D-02 0.734D-02-0.130D-01-0.647D-01-0.850D-01 0.245D+00
 Coeff:      0.907D+00
 Gap=     0.264 Goal=   None    Shift=    0.000
 RMSDP=6.63D-08 MaxDP=1.57D-06 DE=-1.31D-09 OVMax= 8.77D-06

 Cycle  14  Pass 1  IDiag  1:
 RMSU=  2.75D-08    CP:  9.89D-01  1.40D+00  9.47D-01  8.75D-01  1.25D+00
                    CP:  1.46D+00  1.31D+00  1.33D+00  1.41D+00  1.58D+00
                    CP:  1.49D+00  1.49D+00  1.17D+00
 E= -1028.72401908136     Delta-E=       -0.000000000135 Rises=F Damp=F
 DIIS: error= 1.32D-07 at cycle  14 NSaved=  14.
 NSaved=14 IEnMin=14 EnMin= -1028.72401908136     IErMin=14 ErrMin= 1.32D-07
 ErrMax= 1.32D-07  0.00D+00 EMaxC= 1.00D-01 BMatC= 5.48D-12 BMatP= 3.37D-11
 IDIUse=1 WtCom= 1.00D+00 WtEn= 0.00D+00
 Coeff-Com: -0.115D-04 0.234D-04 0.400D-04 0.226D-04-0.130D-03-0.375D-03
 Coeff-Com:  0.251D-03 0.357D-02 0.464D-02-0.938D-02-0.555D-01-0.225D-01
 Coeff-Com:  0.339D+00 0.740D+00
 Coeff:     -0.115D-04 0.234D-04 0.400D-04 0.226D-04-0.130D-03-0.375D-03
 Coeff:      0.251D-03 0.357D-02 0.464D-02-0.938D-02-0.555D-01-0.225D-01
 Coeff:      0.339D+00 0.740D+00
 Gap=     0.264 Goal=   None    Shift=    0.000
 RMSDP=1.73D-08 MaxDP=3.99D-07 DE=-1.35D-10 OVMax= 2.46D-06

 Cycle  15  Pass 1  IDiag  1:
 RMSU=  9.11D-09    CP:  9.89D-01  1.40D+00  9.47D-01  8.75D-01  1.25D+00
                    CP:  1.46D+00  1.31D+00  1.33D+00  1.41D+00  1.58D+00
                    CP:  1.50D+00  1.53D+00  1.31D+00  1.04D+00
 E= -1028.72401908137     Delta-E=       -0.000000000007 Rises=F Damp=F
 DIIS: error= 4.50D-08 at cycle  15 NSaved=  15.
 NSaved=15 IEnMin=15 EnMin= -1028.72401908137     IErMin=15 ErrMin= 4.50D-08
 ErrMax= 4.50D-08  0.00D+00 EMaxC= 1.00D-01 BMatC= 5.43D-13 BMatP= 5.48D-12
 IDIUse=1 WtCom= 1.00D+00 WtEn= 0.00D+00
 Coeff-Com: -0.276D-05 0.515D-05 0.150D-04 0.252D-04-0.176D-05-0.248D-03
 Coeff-Com: -0.516D-03-0.309D-03 0.337D-02 0.922D-02 0.740D-03-0.489D-01
 Coeff-Com: -0.725D-01 0.151D+00 0.958D+00
 Coeff:     -0.276D-05 0.515D-05 0.150D-04 0.252D-04-0.176D-05-0.248D-03
 Coeff:     -0.516D-03-0.309D-03 0.337D-02 0.922D-02 0.740D-03-0.489D-01
 Coeff:     -0.725D-01 0.151D+00 0.958D+00
 Gap=     0.264 Goal=   None    Shift=    0.000
 RMSDP=8.15D-09 MaxDP=1.81D-07 DE=-6.59D-12 OVMax= 8.45D-07

 Error on total polarization charges =  0.00822
 SCF Done:  E(RwB97XD) =  -1028.72401908     A.U. after   15 cycles
            NFock= 15  Conv=0.82D-08     -V/T= 2.0042
 KE= 1.024424625035D+03 PE=-4.611062671699D+03 EE= 1.458611983429D+03
 Leave Link  502 at Tue Oct 27 22:52:19 2020, MaxMem=  7784628224 cpu:             817.8 elap:              82.4
 (Enter /gpfs/loomis/apps/avx/software/Gaussian/16-C.01_AVX/g16/l601.exe)
 Copying SCF densities to generalized density rwf, IOpCl= 0 IROHF=0.

 **********************************************************************

            Population analysis using the SCF Density.

 **********************************************************************

 Alpha  occ. eigenvalues --  -89.08610 -19.27506 -14.45980 -10.39131 -10.38632
 Alpha  occ. eigenvalues --  -10.34517 -10.34318 -10.32883 -10.32478 -10.32304
 Alpha  occ. eigenvalues --  -10.31868 -10.31277 -10.31227 -10.31105 -10.31001
 Alpha  occ. eigenvalues --  -10.30892  -8.10596  -6.05435  -6.05098  -6.04667
 Alpha  occ. eigenvalues --   -1.23563  -1.07891  -0.97161  -0.95657  -0.91618
 Alpha  occ. eigenvalues --   -0.88815  -0.86409  -0.84407  -0.82662  -0.77021
 Alpha  occ. eigenvalues --   -0.72863  -0.70317  -0.69768  -0.68474  -0.64748
 Alpha  occ. eigenvalues --   -0.60281  -0.59438  -0.58451  -0.56214  -0.54771
 Alpha  occ. eigenvalues --   -0.53888  -0.53545  -0.52707  -0.50951  -0.50817
 Alpha  occ. eigenvalues --   -0.49238  -0.48227  -0.46070  -0.45651  -0.44975
 Alpha  occ. eigenvalues --   -0.43644  -0.43275  -0.42109  -0.39641  -0.37037
 Alpha  occ. eigenvalues --   -0.36461  -0.32233  -0.31608  -0.28206
 Alpha virt. eigenvalues --   -0.01800   0.05419   0.06663   0.07137   0.07951
 Alpha virt. eigenvalues --    0.11431   0.14058   0.15316   0.16489   0.18130
 Alpha virt. eigenvalues --    0.18590   0.21354   0.21815   0.22353   0.23006
 Alpha virt. eigenvalues --    0.23728   0.23905   0.24821   0.28297   0.30799
 Alpha virt. eigenvalues --    0.32258   0.33628   0.35054   0.36257   0.37167
 Alpha virt. eigenvalues --    0.38027   0.38662   0.40844   0.43892   0.45768
 Alpha virt. eigenvalues --    0.46789   0.48866   0.50902   0.51373   0.51704
 Alpha virt. eigenvalues --    0.52461   0.53554   0.54537   0.55073   0.55899
 Alpha virt. eigenvalues --    0.56064   0.56406   0.57353   0.58026   0.58278
 Alpha virt. eigenvalues --    0.58821   0.59033   0.59593   0.59996   0.60067
 Alpha virt. eigenvalues --    0.60637   0.60946   0.62390   0.62803   0.63865
 Alpha virt. eigenvalues --    0.65293   0.66178   0.66489   0.68327   0.69186
 Alpha virt. eigenvalues --    0.70750   0.72009   0.72587   0.72935   0.73335
 Alpha virt. eigenvalues --    0.74028   0.75304   0.76126   0.77105   0.78616
 Alpha virt. eigenvalues --    0.79194   0.79418   0.80791   0.82168   0.82197
 Alpha virt. eigenvalues --    0.84181   0.89947   0.91765   0.93238   0.94162
 Alpha virt. eigenvalues --    0.95163   0.95201   0.96233   0.97053   0.97456
 Alpha virt. eigenvalues --    0.98467   0.99236   1.00445   1.01049   1.02310
 Alpha virt. eigenvalues --    1.02864   1.05324   1.06451   1.07444   1.08158
 Alpha virt. eigenvalues --    1.08728   1.08836   1.09248   1.11006   1.11098
 Alpha virt. eigenvalues --    1.12132   1.13187   1.13588   1.15122   1.15813
 Alpha virt. eigenvalues --    1.16796   1.19533   1.20267   1.22034   1.23478
 Alpha virt. eigenvalues --    1.25114   1.29509   1.33403   1.34929   1.35551
 Alpha virt. eigenvalues --    1.35917   1.36347   1.38648   1.42950   1.44873
 Alpha virt. eigenvalues --    1.48137   1.48969   1.51382   1.51957   1.54345
 Alpha virt. eigenvalues --    1.55505   1.56240   1.57057   1.57476   1.57732
 Alpha virt. eigenvalues --    1.58452   1.59937   1.61993   1.66156   1.66829
 Alpha virt. eigenvalues --    1.68227   1.68870   1.70140   1.70612   1.71018
 Alpha virt. eigenvalues --    1.72623   1.72636   1.72824   1.73829   1.75242
 Alpha virt. eigenvalues --    1.76022   1.77376   1.79966   1.81438   1.82428
 Alpha virt. eigenvalues --    1.83119   1.83568   1.85066   1.85596   1.85964
 Alpha virt. eigenvalues --    1.86799   1.88405   1.88979   1.90097   1.92474
 Alpha virt. eigenvalues --    1.92537   1.93132   1.93806   1.94823   1.95811
 Alpha virt. eigenvalues --    2.00534   2.00785   2.02917   2.03686   2.05310
 Alpha virt. eigenvalues --    2.07898   2.08224   2.09148   2.11462   2.12385
 Alpha virt. eigenvalues --    2.16397   2.18095   2.20678   2.24793   2.26131
 Alpha virt. eigenvalues --    2.26459   2.27765   2.37053   2.38511   2.42272
 Alpha virt. eigenvalues --    2.42564   2.43334   2.47572   2.47597   2.47893
 Alpha virt. eigenvalues --    2.50083   2.51075   2.54176   2.61003   2.63312
 Alpha virt. eigenvalues --    2.65209   2.72636   2.75555   2.78140   2.81109
 Alpha virt. eigenvalues --    2.82305   2.84467   2.89437   2.91609   2.99786
 Alpha virt. eigenvalues --    3.00099   3.08664   3.24297   3.28046   3.30521
 Alpha virt. eigenvalues --    3.52502   3.57431   3.72496   4.34331
          Condensed to atoms (all electrons):
               1          2          3          4          5          6
     1  C    4.758636   0.443600   0.014743  -0.055291  -0.012883   0.523383
     2  C    0.443600   5.338624   0.333237  -0.031623  -0.067510  -0.005331
     3  C    0.014743   0.333237   4.756516   0.485509  -0.003882  -0.065580
     4  C   -0.055291  -0.031623   0.485509   4.780391   0.526521  -0.011960
     5  C   -0.012883  -0.067510  -0.003882   0.526521   4.736426   0.487438
     6  C    0.523383  -0.005331  -0.065580  -0.011960   0.487438   4.747803
     7  H    0.400505  -0.037480   0.008287  -0.000489   0.008091  -0.039848
     8  H   -0.001141   0.012697  -0.033275   0.392536  -0.044892   0.008180
     9  H    0.009106  -0.000841   0.008844  -0.039531   0.404772  -0.046076
    10  H   -0.042337   0.009750  -0.000579   0.008616  -0.043728   0.405649
    11  N    0.009275  -0.065900   0.517224  -0.042319   0.003183  -0.000131
    12  S   -0.068833   0.345871  -0.100434   0.007609   0.000207   0.003768
    13  C   -0.000181   0.003810   0.007560  -0.000681   0.000010   0.000003
    14  C   -0.000011  -0.000013   0.000449   0.000007  -0.000000  -0.000000
    15  C    0.000008   0.000041  -0.001587  -0.000003  -0.000001   0.000000
    16  C    0.000000  -0.000003   0.000006  -0.000000   0.000000   0.000000
    17  H   -0.000004   0.000094  -0.000005  -0.000000   0.000000   0.000000
    18  C    0.000000   0.000008  -0.000041  -0.000000  -0.000000   0.000000
    19  C   -0.000000   0.000000   0.000002   0.000000   0.000000   0.000000
    20  H   -0.000000  -0.000000  -0.000000   0.000000   0.000000  -0.000000
    21  H   -0.000000  -0.000000   0.000001   0.000000   0.000000  -0.000000
    22  H   -0.000000  -0.000000   0.000000  -0.000000   0.000000  -0.000000
    23  C    0.005055  -0.057171  -0.133328  -0.000616   0.000295  -0.000204
    24  O    0.000001  -0.000032  -0.001364  -0.000030  -0.000000  -0.000000
    25  H   -0.000063   0.001689  -0.002180  -0.000534  -0.000003   0.000009
               7          8          9         10         11         12
     1  C    0.400505  -0.001141   0.009106  -0.042337   0.009275  -0.068833
     2  C   -0.037480   0.012697  -0.000841   0.009750  -0.065900   0.345871
     3  C    0.008287  -0.033275   0.008844  -0.000579   0.517224  -0.100434
     4  C   -0.000489   0.392536  -0.039531   0.008616  -0.042319   0.007609
     5  C    0.008091  -0.044892   0.404772  -0.043728   0.003183   0.000207
     6  C   -0.039848   0.008180  -0.046076   0.405649  -0.000131   0.003768
     7  H    0.664312   0.000036  -0.000157  -0.011896  -0.000116  -0.007184
     8  H    0.000036   0.664611  -0.012899  -0.000120  -0.000823  -0.000099
     9  H   -0.000157  -0.012899   0.671623  -0.012379  -0.000104   0.000021
    10  H   -0.011896  -0.000120  -0.012379   0.667786  -0.000001  -0.000158
    11  N   -0.000116  -0.000823  -0.000104  -0.000001   6.452948  -0.080363
    12  S   -0.007184  -0.000099   0.000021  -0.000158  -0.080363  15.502555
    13  C    0.000004   0.000037  -0.000000  -0.000000  -0.013385  -0.062684
    14  C    0.000001   0.000001   0.000000  -0.000000   0.003765  -0.008089
    15  C   -0.000000  -0.000039   0.000000   0.000000  -0.025916   0.005304
    16  C    0.000000  -0.000000  -0.000000   0.000000  -0.000086   0.000018
    17  H    0.000001   0.000000  -0.000000  -0.000000   0.000203   0.007804
    18  C   -0.000000  -0.000000  -0.000000  -0.000000  -0.000472  -0.000127
    19  C    0.000000   0.000000  -0.000000  -0.000000   0.000044   0.000019
    20  H    0.000000  -0.000000   0.000000   0.000000   0.000001   0.000002
    21  H   -0.000000   0.000000  -0.000000   0.000000  -0.000000   0.000003
    22  H    0.000000  -0.000000  -0.000000  -0.000000  -0.000000  -0.000000
    23  C    0.000077  -0.001031   0.000008   0.000003   0.546065   0.304025
    24  O   -0.000000  -0.000116   0.000000  -0.000000  -0.036829  -0.000116
    25  H    0.000001   0.001120  -0.000003   0.000000   0.060686   0.002587
              13         14         15         16         17         18
     1  C   -0.000181  -0.000011   0.000008   0.000000  -0.000004   0.000000
     2  C    0.003810  -0.000013   0.000041  -0.000003   0.000094   0.000008
     3  C    0.007560   0.000449  -0.001587   0.000006  -0.000005  -0.000041
     4  C   -0.000681   0.000007  -0.000003  -0.000000  -0.000000  -0.000000
     5  C    0.000010  -0.000000  -0.000001   0.000000   0.000000  -0.000000
     6  C    0.000003  -0.000000   0.000000   0.000000   0.000000   0.000000
     7  H    0.000004   0.000001  -0.000000   0.000000   0.000001  -0.000000
     8  H    0.000037   0.000001  -0.000039  -0.000000   0.000000  -0.000000
     9  H   -0.000000   0.000000   0.000000  -0.000000  -0.000000  -0.000000
    10  H   -0.000000  -0.000000   0.000000   0.000000  -0.000000  -0.000000
    11  N   -0.013385   0.003765  -0.025916  -0.000086   0.000203  -0.000472
    12  S   -0.062684  -0.008089   0.005304   0.000018   0.007804  -0.000127
    13  C    5.338689   0.502108   0.259390  -0.010963  -0.036355  -0.077586
    14  C    0.502108   4.793925  -0.020506   0.531360   0.400874  -0.053551
    15  C    0.259390  -0.020506   4.893895  -0.062725   0.007846   0.485503
    16  C   -0.010963   0.531360  -0.062725   4.735302  -0.035592  -0.015646
    17  H   -0.036355   0.400874   0.007846  -0.035592   0.665553  -0.000713
    18  C   -0.077586  -0.053551   0.485503  -0.015646  -0.000713   4.826080
    19  C   -0.047225  -0.018976  -0.008860   0.491577   0.008296   0.511972
    20  H    0.008743  -0.035062  -0.000288   0.402027  -0.012697   0.008374
    21  H    0.011641  -0.000387  -0.024117   0.007064   0.000040   0.382023
    22  H   -0.000974   0.009157   0.009126  -0.042959  -0.000153  -0.042195
    23  C    0.305134  -0.088011  -0.067189   0.007385  -0.021506   0.007828
    24  O   -0.080404   0.003546   0.505625   0.000018  -0.000055  -0.056937
    25  H   -0.052291  -0.001316   0.007574  -0.000014   0.000029   0.009900
              19         20         21         22         23         24
     1  C   -0.000000  -0.000000  -0.000000  -0.000000   0.005055   0.000001
     2  C    0.000000  -0.000000  -0.000000  -0.000000  -0.057171  -0.000032
     3  C    0.000002  -0.000000   0.000001   0.000000  -0.133328  -0.001364
     4  C    0.000000   0.000000   0.000000  -0.000000  -0.000616  -0.000030
     5  C    0.000000   0.000000   0.000000   0.000000   0.000295  -0.000000
     6  C    0.000000  -0.000000  -0.000000  -0.000000  -0.000204  -0.000000
     7  H    0.000000   0.000000  -0.000000   0.000000   0.000077  -0.000000
     8  H    0.000000  -0.000000   0.000000  -0.000000  -0.001031  -0.000116
     9  H   -0.000000   0.000000  -0.000000  -0.000000   0.000008   0.000000
    10  H   -0.000000   0.000000   0.000000  -0.000000   0.000003  -0.000000
    11  N    0.000044   0.000001  -0.000000  -0.000000   0.546065  -0.036829
    12  S    0.000019   0.000002   0.000003  -0.000000   0.304025  -0.000116
    13  C   -0.047225   0.008743   0.011641  -0.000974   0.305134  -0.080404
    14  C   -0.018976  -0.035062  -0.000387   0.009157  -0.088011   0.003546
    15  C   -0.008860  -0.000288  -0.024117   0.009126  -0.067189   0.505625
    16  C    0.491577   0.402027   0.007064  -0.042959   0.007385   0.000018
    17  H    0.008296  -0.012697   0.000040  -0.000153  -0.021506  -0.000055
    18  C    0.511972   0.008374   0.382023  -0.042195   0.007828  -0.056937
    19  C    4.725359  -0.046712  -0.042842   0.407225   0.000683   0.002507
    20  H   -0.046712   0.673464  -0.000143  -0.011774  -0.000347   0.000003
    21  H   -0.042842  -0.000143   0.653244  -0.011921  -0.000417   0.001754
    22  H    0.407225  -0.011774  -0.011921   0.659166  -0.000002  -0.000052
    23  C    0.000683  -0.000347  -0.000417  -0.000002   5.118742  -0.001021
    24  O    0.002507   0.000003   0.001754  -0.000052  -0.001021   7.159191
    25  H   -0.000047  -0.000001   0.000222   0.000005   0.006355   0.440095
              25
     1  C   -0.000063
     2  C    0.001689
     3  C   -0.002180
     4  C   -0.000534
     5  C   -0.000003
     6  C    0.000009
     7  H    0.000001
     8  H    0.001120
     9  H   -0.000003
    10  H    0.000000
    11  N    0.060686
    12  S    0.002587
    13  C   -0.052291
    14  C   -0.001316
    15  C    0.007574
    16  C   -0.000014
    17  H    0.000029
    18  C    0.009900
    19  C   -0.000047
    20  H   -0.000001
    21  H    0.000222
    22  H    0.000005
    23  C    0.006355
    24  O    0.440095
    25  H    0.601524
 Mulliken charges:
               1
     1  C    0.016433
     2  C   -0.223514
     3  C    0.209876
     4  C   -0.018110
     5  C    0.005956
     6  C   -0.007103
     7  H    0.015855
     8  H    0.015216
     9  H    0.017615
    10  H    0.019394
    11  N   -0.326948
    12  S    0.148295
    13  C   -0.054402
    14  C   -0.019271
    15  C    0.036918
    16  C   -0.006770
    17  H    0.016340
    18  C    0.015582
    19  C    0.016977
    20  H    0.014410
    21  H    0.023836
    22  H    0.025353
    23  C    0.069188
    24  O    0.064218
    25  H   -0.075345
 Sum of Mulliken charges =  -0.00000
 Mulliken charges with hydrogens summed into heavy atoms:
               1
     1  C    0.032288
     2  C   -0.223514
     3  C    0.209876
     4  C   -0.002894
     5  C    0.023571
     6  C    0.012291
    11  N   -0.326948
    12  S    0.148295
    13  C   -0.054402
    14  C   -0.002931
    15  C    0.036918
    16  C    0.007640
    18  C    0.039418
    19  C    0.042329
    23  C    0.069188
    24  O   -0.011126
 Electronic spatial extent (au):  <R**2>=           4340.3025
 Charge=             -0.0000 electrons
 Dipole moment (field-independent basis, Debye):
    X=             -1.0080    Y=             -1.3263    Z=              0.0000  Tot=              1.6659
 Quadrupole moment (field-independent basis, Debye-Ang):
   XX=            -82.9631   YY=            -87.2913   ZZ=           -104.1260
   XY=             -7.5201   XZ=             -0.0001   YZ=              0.0001
 Traceless Quadrupole moment (field-independent basis, Debye-Ang):
   XX=              8.4970   YY=              4.1688   ZZ=            -12.6658
   XY=             -7.5201   XZ=             -0.0001   YZ=              0.0001
 Octapole moment (field-independent basis, Debye-Ang**2):
  XXX=              2.2333  YYY=             -6.5459  ZZZ=              0.0000  XYY=             -9.2238
  XXY=              6.6727  XXZ=              0.0002  XZZ=              0.7673  YZZ=              3.9966
  YYZ=              0.0006  XYZ=             -0.0006
 Hexadecapole moment (field-independent basis, Debye-Ang**3):
 XXXX=          -2593.7243 YYYY=          -2580.5326 ZZZZ=           -113.3101 XXXY=            801.9086
 XXXZ=              0.0097 YYYX=            763.8250 YYYZ=             -0.0124 ZZZX=              0.0135
 ZZZY=             -0.0178 XXYY=           -841.0748 XXZZ=           -570.5233 YYZZ=           -547.3794
 XXYZ=             -0.0033 YYXZ=              0.0012 ZZXY=            356.8079
 N-N= 1.099302044153D+03 E-N=-4.611062674292D+03  KE= 1.024424625035D+03
 No NMR shielding tensors so no spin-rotation constants.
 Leave Link  601 at Tue Oct 27 22:52:19 2020, MaxMem=  7784628224 cpu:               1.1 elap:               0.1
 (Enter /gpfs/loomis/apps/avx/software/Gaussian/16-C.01_AVX/g16/l701.exe)
 ... and contract with generalized density number  0.
 Compute integral first derivatives.
 R6Disp: Adding Grimme-D2 dispersion energy 1st derivatives to the gradient.
 D1PCM: PCM CHGder 1st derivatives, ID1Alg=3 FixD1E=F DoIter=F DoCFld=F I1PDM=0.
 GePol: Maximum number of non-zero 1st derivatives   =     258
 Leave Link  701 at Tue Oct 27 22:52:20 2020, MaxMem=  7784628224 cpu:              13.6 elap:               1.4
 (Enter /gpfs/loomis/apps/avx/software/Gaussian/16-C.01_AVX/g16/l702.exe)
 L702 exits ... SP integral derivatives will be done elsewhere.
 Leave Link  702 at Tue Oct 27 22:52:20 2020, MaxMem=  7784628224 cpu:               0.2 elap:               0.0
 (Enter /gpfs/loomis/apps/avx/software/Gaussian/16-C.01_AVX/g16/l703.exe)
 Integral derivatives from FoFJK, PRISM(SPDF).
 Compute integral first derivatives, UseDBF=F ICtDFT=           0.
 Calling FoFJK, ICntrl=      2127 FMM=F ISym2X=0 I1Cent= 0 IOpClX= 0 NMat=1 NMatS=1 NMatT=0.
 FoFJK:  IHMeth= 1 ICntrl=    2127 DoSepK=T KAlg= 0 I1Cent=           0 FoldK=F
 IRaf=         1 NMat=       1 IRICut=       1 DoRegI=T DoRafI=F ISym2E= 0 IDoP0=0 IntGTp=1.
 FoFCou: FMM=F IPFlag=           0 FMFlag=      100000 FMFlg1=         800
         NFxFlg=           0 DoJE=F BraDBF=F KetDBF=F FulRan=T
         wScrn=  0.000000 ICntrl=      2527 IOpCl=  0 I1Cent=           0 NGrid=           0
         NMat0=    1 NMatS0=      1 NMatT0=    0 NMatD0=    1 NMtDS0=    0 NMtDT0=    0
 Symmetry not used in FoFCou.
 Leave Link  703 at Tue Oct 27 22:52:34 2020, MaxMem=  7784628224 cpu:             137.0 elap:              13.8
 (Enter /gpfs/loomis/apps/avx/software/Gaussian/16-C.01_AVX/g16/l716.exe)
 Dipole        =-3.96563224D-01-5.21818615D-01 4.32129790D-06
 -------------------------------------------------------------------
 Center     Atomic                   Forces (Hartrees/Bohr)
 Number     Number              X              Y              Z
 -------------------------------------------------------------------
      1        6           0.006137401   -0.006712433   -0.000000011
      2        6           0.004851883    0.011779078   -0.000000162
      3        6           0.020595355   -0.046291686   -0.000000483
      4        6          -0.017403462    0.003749692   -0.000000018
      5        6           0.000508203   -0.006531695    0.000000059
      6        6          -0.002622670    0.005477367   -0.000000075
      7        1           0.000450254   -0.000464916   -0.000000022
      8        1          -0.000280335    0.000080978   -0.000000001
      9        1          -0.000417704    0.000210737    0.000000004
     10        1          -0.000112727    0.000293269    0.000000012
     11        7          -0.060734243    0.016547885    0.000000714
     12       16           0.004955908    0.009203216    0.000000246
     13        6          -0.031601526    0.060813772    0.000000877
     14        6           0.020572457    0.002361530   -0.000000443
     15        6          -0.011280221   -0.039437882   -0.000000646
     16        6          -0.004410133    0.015111999    0.000000341
     17        1          -0.001527306   -0.000699031   -0.000000033
     18        6          -0.001962527   -0.004068497    0.000000287
     19        6           0.003852403   -0.019106385   -0.000000344
     20        1           0.000402843   -0.000008783    0.000000031
     21        1           0.000241717   -0.000237039   -0.000000086
     22        1          -0.000069322    0.000084881   -0.000000038
     23        6           0.065259370   -0.025692100   -0.000000333
     24        8          -0.294172655    0.478700763    0.000013108
     25        1           0.298767037   -0.455164721   -0.000012986
 -------------------------------------------------------------------
 Cartesian Forces:  Max     0.478700763 RMS     0.091781516
 Leave Link  716 at Tue Oct 27 22:52:34 2020, MaxMem=  7784628224 cpu:               0.2 elap:               0.0
 (Enter /gpfs/loomis/apps/avx/software/Gaussian/16-C.01_AVX/g16/l103.exe)

 GradGradGradGradGradGradGradGradGradGradGradGradGradGradGradGradGradGrad
 Berny optimization.
 FormGI is forming the generalized inverse of G from B-inverse, IUseBI=4.
 Internal  Forces:  Max     0.521624029 RMS     0.047291092
 Search for a local minimum.
 Step number   1 out of a maximum of  143
 All quantities printed in internal units (Hartrees-Bohrs-Radians)
 RMS Force = .47651D-01 SwitMx=.10000D-02 MixMth= 1
 Mixed Optimization -- RFO/linear search
 Second derivative matrix not updated -- first step.
 ITU=  0
     Eigenvalues ---    0.01380   0.01464   0.01690   0.01713   0.01794
     Eigenvalues ---    0.01837   0.01929   0.01952   0.01985   0.01993
     Eigenvalues ---    0.02027   0.02036   0.02051   0.02080   0.02091
     Eigenvalues ---    0.02128   0.02146   0.02172   0.02173   0.02200
     Eigenvalues ---    0.02207   0.02718   0.16000   0.16000   0.16000
     Eigenvalues ---    0.16000   0.16000   0.16000   0.16000   0.16003
     Eigenvalues ---    0.16125   0.22000   0.22027   0.22525   0.22584
     Eigenvalues ---    0.24474   0.24552   0.25000   0.25000   0.25000
     Eigenvalues ---    0.27423   0.30029   0.33223   0.34571   0.34650
     Eigenvalues ---    0.34691   0.34720   0.34722   0.34728   0.34755
     Eigenvalues ---    0.34773   0.36940   0.39331   0.39980   0.41002
     Eigenvalues ---    0.42591   0.43498   0.44256   0.44764   0.46158
     Eigenvalues ---    0.46528   0.47944   0.48267   0.50190   0.56303
     Eigenvalues ---    0.61210   1.452771000.000001000.000001000.00000
     Eigenvalues --- 1000.000001000.000001000.000001000.000001000.00000
     Eigenvalues --- 1000.000001000.000001000.000001000.000001000.00000
     Eigenvalues --- 1000.000001000.000001000.000001000.000001000.00000
     Eigenvalues --- 1000.000001000.000001000.000001000.000001000.00000
     Eigenvalues --- 1000.000001000.000001000.000001000.000001000.00000
     Eigenvalues --- 1000.000001000.000001000.000001000.000001000.00000
     Eigenvalues --- 1000.000001000.000001000.000001000.000001000.00000
     Eigenvalues --- 1000.000001000.000001000.000001000.000001000.00000
     Eigenvalues --- 1000.000001000.000001000.000001000.000001000.00000
     Eigenvalues --- 1000.000001000.000001000.000001000.000001000.00000
     Eigenvalues --- 1000.000001000.000001000.000001000.000001000.00000
     Eigenvalues --- 1000.000001000.000001000.000001000.000001000.00000
     Eigenvalues --- 1000.000001000.000001000.00000
 RFO step:  Lambda=-1.88903853D-01 EMin= 1.37979616D-02
 Linear search not attempted -- first point.
 Maximum step size (   0.300) exceeded in Quadratic search.
    -- Step size scaled by   0.839
 Iteration  1 RMS(Cart)=  0.02431576 RMS(Int)=  0.00563528
 Iteration  2 RMS(Cart)=  0.00577098 RMS(Int)=  0.00016474
 Iteration  3 RMS(Cart)=  0.00006691 RMS(Int)=  0.00015777
 Iteration  4 RMS(Cart)=  0.00000007 RMS(Int)=  0.00015783
 Iteration  1 RMS(Cart)=  0.00000083 RMS(Int)=  0.00000019
 ITry= 1 IFail=0 DXMaxC= 1.90D-01 DCOld= 1.00D+10 DXMaxT= 3.00D-01 DXLimC= 3.00D+00 Rises=F
 Variable       Old X    -DE/DX   Delta X   Delta X   Delta X     New X
                                 (Linear)    (Quad)   (Total)
    R1        2.62544   0.01303   0.00000   0.00937   0.00927   2.63471
    R2        2.63246   0.00382   0.00000  -0.00262  -0.00274   2.62972
    R3        2.06118   0.00025   0.00000   0.00015   0.00014   2.06132
    R4        2.70544  -0.01643   0.00000  -0.02529  -0.02528   2.68016
    R5        3.30238   0.00688   0.00000   0.00278   0.00266   3.30504
    R6        2.69584  -0.02178   0.00000  -0.02453  -0.02444   2.67141
    R7        2.51455   0.01672   0.00000   0.03193   0.03219   2.54674
    R8        2.61052  -0.00729   0.00000  -0.00003   0.00011   2.61062
    R9        2.06129   0.00001   0.00000  -0.00005  -0.00005   2.06123
   R10        2.66881  -0.00278   0.00000  -0.00649  -0.00654   2.66227
   R11        2.06377  -0.00032   0.00000  -0.00064  -0.00064   2.06313
   R12        2.06179  -0.00039   0.00000  -0.00055  -0.00055   2.06125
   R13        2.57230  -0.05606   0.00000  -0.05849  -0.05837   2.51393
   R14        3.35501   0.02703   0.00000   0.00195   0.00147   3.35648
   R15        2.69239  -0.00245   0.00000  -0.01615  -0.01632   2.67607
   R16        2.77828   0.01278   0.00000  -0.02979  -0.03036   2.74792
   R17        2.65447   0.06068   0.00000   0.05491   0.05457   2.70904
   R18        2.61031   0.00068   0.00000   0.00222   0.00224   2.61255
   R19        2.06133   0.00108   0.00000   0.00175   0.00175   2.06307
   R20        2.64643  -0.01305   0.00000  -0.00662  -0.00647   2.63996
   R21        2.49896   0.01522   0.00000   0.00916   0.00901   2.50797
   R22        2.68507  -0.02077   0.00000  -0.02790  -0.02789   2.65718
   R23        2.06246  -0.00060   0.00000  -0.00066  -0.00065   2.06181
   R24        2.62948  -0.01884   0.00000  -0.00958  -0.00937   2.62011
   R25        2.06074   0.00007   0.00000  -0.00015  -0.00016   2.06058
   R26        2.06045   0.00002   0.00000   0.00024   0.00024   2.06069
   R27        1.39505   0.52162   0.00000   0.26678   0.26720   1.66225
    A1        2.06852  -0.00581   0.00000  -0.00578  -0.00575   2.06277
    A2        2.10600   0.00458   0.00000   0.00482   0.00479   2.11079
    A3        2.10867   0.00124   0.00000   0.00096   0.00096   2.10963
    A4        2.13155  -0.00829   0.00000  -0.00280  -0.00267   2.12888
    A5        2.23406   0.02715   0.00000   0.02107   0.02077   2.25483
    A6        1.91758  -0.01886   0.00000  -0.01827  -0.01811   1.89947
    A7        2.06212   0.01382   0.00000   0.01063   0.01050   2.07261
    A8        2.00952   0.01205   0.00000   0.00619   0.00605   2.01557
    A9        2.21155  -0.02587   0.00000  -0.01682  -0.01655   2.19501
   A10        2.07748   0.00143   0.00000   0.00080   0.00081   2.07829
   A11        2.08220  -0.00193   0.00000  -0.00152  -0.00151   2.08070
   A12        2.12350   0.00051   0.00000   0.00072   0.00070   2.12420
   A13        2.12375  -0.00437   0.00000  -0.00492  -0.00489   2.11886
   A14        2.08341   0.00119   0.00000   0.00148   0.00147   2.08489
   A15        2.07602   0.00318   0.00000   0.00344   0.00342   2.07944
   A16        2.10296   0.00323   0.00000   0.00207   0.00200   2.10496
   A17        2.08874  -0.00082   0.00000  -0.00043  -0.00041   2.08833
   A18        2.09149  -0.00241   0.00000  -0.00164  -0.00160   2.08989
   A19        1.97021   0.00878   0.00000   0.00642   0.00635   1.97656
   A20        1.55266   0.00628   0.00000   0.01095   0.01090   1.56355
   A21        2.03538  -0.01628   0.00000   0.00149   0.00179   2.03716
   A22        2.18675  -0.02629   0.00000  -0.02305  -0.02281   2.16394
   A23        2.06106   0.04258   0.00000   0.02155   0.02103   2.08209
   A24        2.10926   0.00959   0.00000   0.01016   0.01007   2.11934
   A25        2.07479  -0.00279   0.00000  -0.00172  -0.00169   2.07311
   A26        2.09913  -0.00680   0.00000  -0.00844  -0.00839   2.09074
   A27        2.11721  -0.00029   0.00000  -0.00869  -0.00877   2.10844
   A28        2.06619   0.06787   0.00000   0.05073   0.04999   2.11618
   A29        2.09978  -0.06758   0.00000  -0.04204  -0.04122   2.05857
   A30        2.12176  -0.00274   0.00000  -0.01346  -0.01352   2.10824
   A31        2.08313   0.00193   0.00000   0.00703   0.00706   2.09019
   A32        2.07829   0.00081   0.00000   0.00642   0.00646   2.08476
   A33        2.09050   0.00887   0.00000   0.00846   0.00838   2.09888
   A34        2.06649  -0.00555   0.00000  -0.00537  -0.00532   2.06117
   A35        2.12619  -0.00332   0.00000  -0.00308  -0.00305   2.12314
   A36        2.09225   0.00086   0.00000   0.00204   0.00206   2.09431
   A37        2.09309   0.00067   0.00000  -0.00057  -0.00059   2.09250
   A38        2.09784  -0.00153   0.00000  -0.00147  -0.00146   2.09638
   A39        1.97482  -0.00826   0.00000  -0.00528  -0.00520   1.96963
   A40        2.14588  -0.00761   0.00000  -0.00975  -0.00967   2.13621
   A41        2.16248   0.01586   0.00000   0.01503   0.01486   2.17735
   A42        1.95814   0.01131   0.00000   0.00331   0.00306   1.96120
    D1        0.00000   0.00000   0.00000   0.00000   0.00000   0.00000
    D2       -3.14159   0.00000   0.00000   0.00000   0.00000  -3.14159
    D3        3.14159   0.00000   0.00000   0.00000   0.00000   3.14159
    D4       -0.00000   0.00000   0.00000   0.00000   0.00000  -0.00000
    D5       -0.00000   0.00000   0.00000   0.00000   0.00000  -0.00000
    D6        3.14159   0.00000   0.00000  -0.00000  -0.00000   3.14159
    D7        3.14159   0.00000   0.00000   0.00000   0.00000  -3.14159
    D8        0.00000  -0.00000   0.00000  -0.00000  -0.00000   0.00000
    D9        0.00000  -0.00000   0.00000  -0.00000  -0.00000   0.00000
   D10        3.14159  -0.00000   0.00000  -0.00000  -0.00000   3.14159
   D11       -3.14159  -0.00000   0.00000  -0.00000  -0.00000  -3.14159
   D12       -0.00000  -0.00000   0.00000  -0.00000  -0.00000  -0.00000
   D13        3.14159   0.00000   0.00000   0.00000   0.00000   3.14159
   D14       -0.00000   0.00000   0.00000   0.00000   0.00000  -0.00000
   D15       -0.00000   0.00000   0.00000   0.00000   0.00000  -0.00000
   D16        3.14159   0.00000   0.00000   0.00000   0.00000   3.14159
   D17        3.14159   0.00000   0.00000   0.00000   0.00000  -3.14159
   D18        0.00000   0.00000   0.00000   0.00000   0.00000   0.00000
   D19        0.00001  -0.00000   0.00000  -0.00000  -0.00000   0.00000
   D20       -3.14159  -0.00000   0.00000  -0.00000  -0.00000  -3.14159
   D21        0.00000  -0.00000   0.00000   0.00000   0.00000   0.00000
   D22       -3.14159  -0.00000   0.00000  -0.00000  -0.00000  -3.14159
   D23        3.14159   0.00000   0.00000   0.00000   0.00000  -3.14159
   D24        0.00000   0.00000   0.00000   0.00000   0.00000   0.00000
   D25        0.00000  -0.00000   0.00000  -0.00000  -0.00000   0.00000
   D26       -3.14159  -0.00000   0.00000  -0.00000  -0.00000  -3.14159
   D27       -3.14159  -0.00000   0.00000  -0.00000  -0.00000  -3.14159
   D28        0.00000   0.00000   0.00000   0.00000   0.00000   0.00000
   D29       -0.00001   0.00000   0.00000   0.00000   0.00000  -0.00001
   D30        3.14157   0.00000   0.00000   0.00000   0.00000   3.14158
   D31        0.00001  -0.00000   0.00000  -0.00000  -0.00000   0.00001
   D32       -3.14157  -0.00000   0.00000  -0.00000  -0.00000  -3.14158
   D33        0.00001  -0.00000   0.00000  -0.00000  -0.00000   0.00000
   D34       -3.14159  -0.00000   0.00000  -0.00000  -0.00000  -3.14159
   D35       -3.14159  -0.00000   0.00000  -0.00000  -0.00000  -3.14159
   D36        0.00000  -0.00000   0.00000  -0.00000  -0.00000   0.00000
   D37       -0.00001   0.00000   0.00000   0.00000   0.00000  -0.00001
   D38        3.14158   0.00000   0.00000   0.00000   0.00000   3.14158
   D39        3.14159   0.00000   0.00000   0.00000   0.00000   3.14159
   D40       -0.00001   0.00000   0.00000   0.00000   0.00000  -0.00001
   D41        3.14159  -0.00000   0.00000  -0.00000  -0.00000   3.14159
   D42       -0.00002  -0.00000   0.00000   0.00000   0.00000  -0.00002
   D43       -0.00001  -0.00000   0.00000  -0.00000  -0.00000  -0.00001
   D44        3.14157  -0.00000   0.00000   0.00000   0.00000   3.14157
   D45       -0.00000  -0.00000   0.00000   0.00000   0.00000  -0.00000
   D46        3.14159   0.00000   0.00000   0.00000   0.00000   3.14159
   D47       -3.14159  -0.00000   0.00000  -0.00000  -0.00000  -3.14159
   D48        0.00000  -0.00000   0.00000  -0.00000  -0.00000   0.00000
[...]
 0.00000055,-0.00168377,-0.00120003,0.00000021,0.06486548,0.04070384,-0
 .00000096,0.08682060,-0.26123606,-0.00001443,0.02791728,-0.07335269,-0
 .00000633,0.00391217,0.68139812,0.,0.,0.00008009,-0.00000003,-0.000000
 07,0.00040754,0.00000006,0.00000019,-0.00068188,0.00000003,-0.00000003
 ,-0.00014148,0.,0.,0.00007109,0.00000001,-0.00000002,-0.00002164,0.,0.
 ,0.00000410,0.,0.,0.00000743,0.,0.,0.00001750,0.,0.,-0.00003313,0.0000
 0067,-0.00000007,0.00012423,0.00000002,-0.00000008,-0.00074849,0.00000
 462,0.00000065,0.00749219,0.00001599,-0.00001972,-0.06263357,0.0000011
 6,-0.00000440,-0.00454309,-0.00003198,0.00003475,0.12807586,0.00030857
 ,0.00004918,0.00000001,-0.00073903,0.00026133,0.,0.00027740,-0.0000408
 6,-0.00000002,0.00003078,0.00003117,0.,0.00005522,0.00006226,0.,-0.000
 06978,-0.00010273,-0.00000001,-0.00001658,-0.00001249,0.,0.00003835,0.
 00000726,0.,0.00001419,-0.00000178,0.,0.00003623,-0.00000958,0.,0.0003
 6852,0.00044097,-0.00000004,-0.00158632,0.00201898,-0.00000002,-0.0041
 6634,-0.02793470,-0.00000089,-0.08832910,-0.08740789,-0.00000142,-0.00
 545034,0.00097204,0.00000072,0.01077902,0.02072818,0.00000053,0.090197
 54,0.00001963,-0.00000471,0.,-0.00004151,0.00052757,0.,0.00029189,-0.0
 0025380,0.,0.00000218,0.00007913,0.,0.00001297,0.00004056,0.,-0.000058
 03,0.00000502,0.,-0.00001010,0.00000686,0.,0.00002445,0.00000017,0.,-0
 .00000311,0.00000240,0.,0.00000284,0.00000157,0.,-0.00062109,0.0002563
 8,-0.00000010,0.00080321,-0.00078402,0.,0.00089712,-0.00218190,-0.0000
 0003,-0.08544267,-0.31138557,-0.00000617,-0.00028247,0.00193297,-0.000
 00028,-0.01152938,-0.01667464,-0.00000007,0.09074887,0.33088099,-0.000
 00002,0.00000001,-0.00001967,0.00000008,0.00000003,-0.00064166,-0.0000
 0006,-0.00000007,0.00013025,-0.00000002,0.,0.00009307,0.,-0.00000001,-
 0.00002912,0.00000001,0.,0.00003275,0.,0.,-0.00001616,0.,0.,-0.0000211
 2,0.,0.,-0.00000577,0.,0.,0.00002370,-0.00000014,0.,0.00006172,-0.0000
 0005,-0.00000004,0.00103822,0.00000100,0.00000135,0.00300629,-0.000002
 01,-0.00000469,-0.03752480,0.00000031,-0.00000036,0.00597957,-0.000000
 34,-0.00000322,0.00491559,0.00000069,0.00000687,0.02495030,0.00013681,
 0.00035684,0.00000010,0.00034649,-0.00003688,0.00000009,0.00114702,-0.
 00007825,-0.00000031,-0.00038880,-0.00009298,-0.00000006,-0.00002658,-
 0.00036539,0.,0.00032661,-0.00008358,-0.00000001,-0.00003794,0.0000029
 0,0.,0.00008955,0.00000663,0.,0.00003710,-0.00001724,0.,0.00003068,-0.
 00000241,0.,0.00170897,0.00417883,-0.00000190,0.00015196,0.00005132,0.
 00000011,0.05652072,0.03668343,0.00000089,-0.06447845,0.02485766,0.000
 00445,-0.19029901,0.06212594,0.00001267,-0.00219643,-0.08923124,-0.000
 00353,-0.00085054,0.00051629,-0.00000052,0.75903469,0.00039929,-0.0002
 7753,-0.00000004,-0.00097610,-0.00018078,0.00000002,-0.00028339,0.0001
 1776,0.00000023,0.00041494,-0.00001139,0.00000003,0.00009640,0.0004859
 9,0.00000002,-0.00046759,-0.00007624,-0.00000002,-0.00000201,0.0000251
 8,0.,0.00000565,-0.00000968,0.,-0.00002435,0.00001662,0.,0.00000978,0.
 00000278,0.,-0.00088727,-0.00061803,0.00000026,0.00142267,-0.00029421,
 -0.00000003,-0.00051217,-0.03637057,-0.00000189,0.02081927,-0.01089765
 ,-0.00000187,0.13180996,-0.25561470,-0.00001937,-0.03838742,0.01511399
 ,0.00000202,0.00028520,0.00055312,0.00000050,0.04616324,0.73297694,0.0
 0000011,-0.00000016,-0.00018847,-0.00000032,0.00000017,-0.00005777,-0.
 00000005,-0.00000024,-0.00052957,0.00000011,0.,0.00000816,0.00000003,0
 .00000017,0.00001517,-0.00000019,0.,0.00002223,0.,0.,-0.00001967,-0.00
 000003,0.,-0.00001300,0.,0.,-0.00000597,0.,0.,0.00003668,0.00000006,0.
 00000002,0.00093894,0.00000009,-0.00000023,-0.00014940,-0.00000248,-0.
 00000253,0.00774928,0.00000368,-0.00000220,-0.00348514,0.00001319,-0.0
 0001612,-0.07081301,-0.00000047,0.00000477,0.00814242,-0.00000001,0.00
 000010,-0.00098491,-0.00005184,0.00001887,0.12482665,0.00033798,-0.000
 65709,-0.00000009,-0.00113823,0.00037690,-0.00000002,-0.00048667,-0.00
 006948,0.00000034,0.00064585,0.00002082,0.00000004,0.00009046,0.000803
 57,0.00000003,-0.00082718,0.00002987,0.,0.00003260,0.00004734,0.,-0.00
 003089,-0.00003630,0.,-0.00007419,0.00003783,0.,-0.00004103,0.00002307
 ,0.,-0.00262749,-0.00172346,0.00000057,0.00113141,0.00033746,-0.000000
 10,-0.03994771,-0.02377370,0.00000035,0.06420204,-0.00325588,-0.000003
 36,-0.05498370,0.06010921,0.00000767,-0.15014712,-0.02600465,0.0000015
 0,-0.00246680,0.00424069,0.00000137,-0.38082465,-0.08868283,0.00001758
 ,0.74455998,0.00009858,-0.00021306,-0.00000005,-0.00021351,0.00025770,
 0.,0.00023677,-0.00087770,0.00000008,-0.00005018,0.00013767,0.,0.00005
 067,0.00011527,0.,-0.00023149,0.00010293,0.,0.00001476,0.00001044,0.,-
 0.00001312,-0.00000727,0.,-0.00002983,0.00001442,0.,-0.00001120,0.0000
 0791,0.,-0.00359837,-0.00094915,0.00000060,0.00052408,0.00024654,-0.00
 000009,-0.04009091,-0.02662267,-0.00000046,0.05399928,-0.05727989,-0.0
 0000600,0.00418043,0.06505350,0.00000167,-0.10012448,-0.31549656,-0.00
 001262,0.00343479,-0.00188930,-0.00000026,-0.01676813,-0.14389406,0.00
 000033,-0.03211260,0.71401241,-0.00000003,0.00000005,0.00001652,0.0000
 0009,-0.00000003,-0.00000838,0.00000004,-0.00000003,0.00019749,-0.0000
 0007,0.,0.00001031,0.,-0.00000007,-0.00001590,0.00000007,0.,0.00000328
 ,0.,0.,-0.00000013,0.,0.,0.00000977,0.,0.,-0.00000153,0.,0.,-0.0000075
 6,-0.00000010,-0.00000002,-0.00016742,-0.00000005,0.00000004,0.0000301
 3,0.00000045,0.00000068,-0.00393101,-0.00000125,-0.00000307,0.00702716
 ,0.00000438,-0.00000184,0.00026549,-0.00000199,-0.00001709,-0.06418429
 ,0.00000066,-0.00000065,0.00750352,0.00001683,0.00000300,-0.05877171,-
 0.00003523,0.00003543,0.14247671,0.00001482,-0.00007212,0.,-0.00006193
 ,0.00012681,0.,-0.00004372,-0.00005466,-0.00000002,0.00005118,0.000032
 79,0.,-0.00000757,0.00006579,0.,-0.00007830,0.00001311,0.,0.00000359,0
 .00000918,0.,0.00000188,-0.00000681,0.,-0.00001140,0.00000718,0.,-0.00
 000939,0.00000594,0.,-0.00041441,0.00034169,-0.00000004,0.00004186,0.0
 0004658,0.,-0.00015856,0.00372403,0.00000059,-0.01479540,-0.00794829,0
 .00000031,0.00051779,0.00030436,-0.00000005,-0.33610786,-0.05892237,0.
 00001241,0.00076353,0.00006598,-0.00000027,0.00146510,-0.00175195,0.00
 000015,-0.00498803,0.00225799,0.00000057,0.35388381,-0.00000020,0.0000
 1863,0.,0.00002432,-0.00006360,0.,0.00006868,0.00005423,0.00000004,-0.
 00000636,-0.00004091,0.,0.00001051,-0.00000892,0.,0.00001690,-0.000006
 96,0.,0.00000049,-0.00000394,0.,0.00000020,0.00000180,0.,0.00000376,-0
 .00000414,0.,0.00000255,-0.00000126,0.,0.00037826,-0.00028049,0.,0.000
 00703,0.00003445,0.,0.00256249,-0.00322019,-0.00000068,0.02439276,0.00
 803568,-0.00000078,0.00054686,-0.00154616,-0.00000009,-0.05965715,-0.0
 7030496,0.00000049,-0.00020930,0.00090026,0.00000029,-0.00077240,-0.00
 527170,-0.00000074,-0.02989473,-0.00081310,0.00000138,0.06298591,0.070
 53164,0.,0.,-0.00000035,0.,0.,-0.00001029,0.00000003,0.,-0.00018504,0.
 ,0.,-0.00000602,0.,0.,0.00001569,0.,0.,-0.00000550,0.,0.,0.00000141,0.
 ,0.,-0.00000514,0.,0.,0.00000212,0.,0.,0.00000404,0.00000003,-0.000000
 09,-0.00012874,0.00000001,0.,0.00002348,0.00000064,-0.00000024,0.00734
 972,0.00000179,0.00000110,0.00177758,-0.00000011,-0.00000026,-0.000690
 18,0.00001261,0.00000073,-0.03375579,-0.00000022,0.00000016,-0.0046159
 3,0.00000084,-0.00000085,0.00634497,-0.00000206,-0.00000072,0.00180080
 ,-0.00001350,-0.00000032,0.02514686,-0.00004033,-0.00000951,0.,0.00002
 379,0.00009464,-0.00000001,-0.00002967,0.00000453,0.,-0.00000322,0.000
 00685,0.,-0.00000990,-0.00001376,0.,0.00001160,0.00001146,0.,0.0000021
 6,-0.00000195,0.,-0.00000768,0.00000081,0.,0.00000002,0.00000044,0.,-0
 .00000382,-0.00000102,0.,0.00011999,-0.00017850,0.00000010,-0.00023606
 ,0.00007283,-0.00000003,-0.00245943,0.00248742,0.00000069,-0.00125608,
 0.00051485,0.00000006,0.00920904,0.02059099,0.00000041,-0.00523148,-0.
 00010278,0.00000094,0.00009435,-0.00008664,-0.00000006,-0.08922647,-0.
 09221631,0.00000227,-0.00368083,-0.02916877,-0.00000019,-0.00035689,-0
 .00140785,-0.00000017,0.08992284,0.00002484,0.00008148,0.00000001,-0.0
 0001448,-0.00012965,0.,0.00008885,0.00004312,-0.00000003,-0.00004410,-
 0.00001498,0.,0.00000888,-0.00005223,0.,0.00005887,-0.00002208,0.,-0.0
 0000604,-0.00000202,0.,0.00000731,0.00000483,0.,0.00000937,-0.00000437
 ,0.,0.00001093,-0.00000345,0.,0.00012769,0.00031188,-0.00000006,0.0001
 8541,-0.00019476,0.,0.00380990,-0.00187934,-0.00000041,0.00093856,0.00
 044832,0.,-0.01262095,-0.01770760,0.00000042,-0.00065151,0.00198496,0.
 00000003,-0.00004897,-0.00007268,0.00000002,-0.08968608,-0.31625244,0.
 00000004,0.00171717,-0.00064816,-0.00000030,0.00007803,-0.00012538,0.,
 0.09839872,0.33208807,0.,0.,0.00001164,0.,-0.00000005,-0.00002330,-0.0
 0000002,0.,-0.00001941,0.,0.,-0.00000044,0.,0.,-0.00000386,0.,0.,0.000
 00251,0.,0.,0.00000142,0.,0.,0.00000418,0.,0.,0.00000225,0.,0.,-0.0000
 0138,-0.00000008,0.00000001,-0.00000943,0.00000006,-0.00000004,-0.0000
 5879,0.00000024,-0.00000116,0.00522784,0.00000126,-0.00000025,-0.00089
 189,-0.00000196,-0.00000008,0.00487449,0.00000050,0.00000079,0.0075825
 6,-0.00000004,0.00000003,-0.00067966,0.00000493,-0.00000013,-0.0351432
 6,-0.00000104,0.00000112,0.00259020,0.00000004,0.00000009,0.00041369,-
 0.00000236,-0.00000029,0.02478548,0.00001313,-0.00003056,0.,-0.0000256
 8,0.00008552,0.,0.00007210,-0.00005438,0.,0.00001473,0.00000963,0.,0.0
 0000108,0.00003087,0.,-0.00003819,0.00000834,0.,0.00000107,0.00000422,
 0.,0.00000486,-0.00000388,0.,-0.00000635,0.00000307,0.,-0.00000412,0.0
 0000352,0.,-0.00011655,0.00016302,-0.00000008,-0.00000056,0.00013248,0
 .,-0.00076992,-0.00063533,-0.00000002,0.00083580,-0.00259292,0.0000000
 3,-0.00386038,-0.00283203,0.00000082,0.00970758,-0.00900408,-0.0000009
 0,0.00034728,-0.00047505,-0.00000003,-0.01377475,0.02518632,0.00000197
 ,-0.18472520,0.14137378,0.00001484,0.00063039,0.00041779,-0.00000011,0
 .00109245,-0.00019036,-0.00000045,0.19206509,0.00002174,0.00001988,0.,
 -0.00006147,0.00001357,0.,0.00001728,0.00002157,0.,-0.00000383,-0.0000
 0332,0.,0.00000785,-0.00000604,0.,0.00000879,-0.00001289,0.,-0.0000036
 3,-0.00000287,0.,0.00000242,0.00000319,0.,0.00000507,-0.00000179,0.,0.
 00000618,-0.00000320,0.,0.00011585,-0.00006880,0.00000002,-0.00004386,
 0.00001204,-0.00000001,-0.00092648,0.00010965,0.00000011,-0.00308108,-
 0.00470945,-0.00000048,-0.00243808,0.00084557,-0.00000016,0.02218158,-
 0.01439624,-0.00000214,0.00104022,-0.00101094,-0.00000011,-0.00677892,
 0.00775273,0.00000039,0.14223742,-0.22033861,-0.00001694,-0.00015925,0
 .00104082,0.00000027,0.00024174,0.00065896,0.00000022,-0.15243113,0.22
 956684,-0.00000001,0.00000002,-0.00001183,0.00000004,-0.00000001,-0.00
 006188,-0.00000002,0.00000003,0.00008795,0.,0.,0.00001120,0.,-0.000000
 02,-0.00000636,0.00000002,0.,0.00000001,0.,0.,0.00000162,0.,0.,-0.0000
 0294,0.,0.,-0.00000037,0.,0.,0.00000610,0.,-0.00000009,-0.00010362,-0.
 00000003,0.00000001,0.00015572,0.00000005,0.00000020,-0.00102060,-0.00
 000047,-0.00000047,0.00664408,0.00000107,-0.00000027,0.00884245,0.0000
 0114,-0.00000148,0.00435783,0.00000008,-0.00000008,-0.00016226,0.00000
 098,-0.00000087,0.00477845,0.00001479,-0.00001618,-0.04065730,-0.00000
 026,0.00000028,-0.00366304,-0.00000047,0.00000010,-0.00467123,-0.00001
 643,0.00001872,0.02678631,-0.00299152,-0.00705652,-0.00000025,-0.00336
 656,0.01623835,-0.00000049,-0.09388341,0.04854776,-0.00000626,0.016950
 07,-0.00409449,0.00000053,-0.00336550,0.01111068,0.00000077,-0.0059860
 1,-0.00570571,-0.00000063,0.00046927,-0.00102954,-0.00000012,-0.000504
 13,-0.00008617,-0.00000006,0.00019660,0.00009435,0.00000003,-0.0007647
 6,-0.00007685,-0.00000009,-0.45770627,-0.06046420,-0.00003811,-0.04717
 968,-0.02064164,0.00000109,-0.15026607,0.06908978,0.00000264,-0.038941
 71,0.02901527,0.00000065,0.02838291,0.01292995,-0.00000302,-0.00080805
 ,-0.01273411,-0.00000084,0.00071240,0.00112392,0.00000018,-0.00269884,
 -0.00170344,-0.00000020,0.00352403,0.00382242,0.00000007,-0.00032808,0
 .00079798,0.00000017,0.00038911,-0.00113414,-0.00000006,0.00023682,0.0
 0000196,0.00000002,0.77382957,0.00171944,-0.00250906,0.00000086,0.0294
 2166,-0.02768656,0.00000117,0.01881164,0.00401418,0.00000244,0.0078238
 6,-0.00900831,0.00000012,-0.00153297,0.00588700,0.00000027,-0.00342052
 ,-0.00438060,-0.00000063,0.00027025,-0.00087278,-0.00000005,-0.0004315
 1,0.00018107,-0.00000002,0.00025207,-0.00037005,-0.00000004,-0.0004173
 0,0.00005521,-0.00000015,-0.07685827,-0.12164998,-0.00000721,0.0028343
 4,-0.11243773,-0.00000037,0.06520358,-0.18623416,-0.00000130,0.0145785
 8,0.00931612,0.00000078,0.01428545,-0.03495531,0.00000088,-0.00711217,
 0.01015156,0.00000088,-0.00217469,-0.00046143,-0.00000011,-0.00009753,
 -0.00663267,0.,-0.00639324,-0.00495622,0.00000010,-0.00114226,0.000822
 68,0.00000009,0.00111779,-0.00040560,-0.00000028,-0.00027695,0.0001189
 9,0.00000006,-0.06137767,0.47568539,-0.00000027,-0.00000015,0.00009311
 ,0.,-0.00000225,0.00452313,-0.00000405,0.00000277,0.00476347,0.0000010
 4,-0.00000045,0.00321106,-0.00000021,0.00000061,0.00048759,-0.00000025
 ,-0.00000045,0.00081040,0.,0.,-0.00037976,-0.00000001,0.00000002,-0.00
 027825,0.00000004,0.00000003,-0.00049008,0.,0.,-0.00001240,-0.00003556
 ,-0.00000676,-0.06320049,0.00000120,-0.00000047,-0.03887080,-0.0000011
 6,0.00000362,-0.05309279,-0.00000024,-0.00000069,-0.00241184,0.0000008
 8,-0.00000206,0.00275836,0.00000076,-0.00000039,0.00664156,-0.00000018
 ,0.00000019,-0.00332271,-0.00000016,-0.00000029,0.00491110,0.00000016,
 0.00000042,-0.00099583,0.00000009,-0.00000012,0.00090688,-0.00000002,-
 0.00000006,0.00002169,-0.00000004,0.00000005,-0.00082234,0.00003767,0.
 00000486,0.13630489,-0.00033844,0.00179852,0.00000024,0.00159797,0.000
 71499,0.,0.00722142,-0.00095532,-0.00000055,-0.00177745,0.00006574,-0.
 00000022,-0.00005684,-0.00176750,-0.00000009,0.00172676,0.00019001,0.0
 0000005,-0.00014621,0.00010545,0.00000002,0.00030715,-0.00001224,0.,0.
 00004681,-0.00002917,0.00000002,0.00006065,0.00004067,0.,0.00822130,0.
 02125564,-0.00000594,-0.00037546,0.00023707,0.00000038,-0.01245703,-0.
 02875138,0.00000645,-0.00781656,0.00402404,0.00000144,-0.32649289,-0.0
 8950729,0.00004075,-0.00465921,-0.01443257,-0.00000064,-0.00084911,-0.
 00041250,-0.00000012,-0.07462109,0.00407665,0.00001571,0.01432539,0.01
 174561,0.00000039,-0.00007462,-0.00026598,0.00000007,0.00187715,-0.001
 22750,-0.00000100,-0.00149511,0.00020819,-0.00000037,-0.02079770,0.013
 21440,-0.00000118,0.57999057,-0.00049918,-0.00025801,-0.00000029,0.000
 34468,-0.00200199,-0.00000007,-0.00672543,-0.00105644,0.00000184,-0.00
 020147,-0.00032002,0.,0.00032151,0.00000094,-0.00000003,0.00010139,-0.
 00003911,0.00000002,0.00010244,-0.00018910,-0.00000002,0.00002020,0.00
 010101,0.00000008,0.00011280,-0.00008725,0.,0.00007009,-0.00005697,0.,
 0.01079868,-0.02683802,0.00000580,-0.00091570,-0.00277631,-0.00000017,
 -0.04365267,-0.00939938,0.00000599,0.00755539,-0.00732638,-0.00000034,
 -0.05497402,-0.13732216,0.00000041,-0.00225272,0.00593804,0.00000051,-
 0.00164960,-0.00027390,-0.00000023,0.04133725,0.01731291,-0.00000381,-
 0.00172731,-0.00980631,-0.00000024,-0.00005364,0.00042880,0.00000003,-
 0.00067565,0.00206522,-0.00000015,0.00156070,0.00032656,0.00000005,0.0
 0364080,0.00519196,-0.00000011,-0.10673018,0.48169901,0.00000012,-0.00
 000017,-0.00009946,-0.00000030,-0.00000003,-0.00007032,-0.00000081,0.0
 0000110,0.00079943,0.00000041,-0.00000006,0.00011739,-0.00000005,0.000
 00034,-0.00003289,-0.00000026,-0.00000011,0.00003738,0.,0.,-0.00001143
 ,0.,-0.00000002,-0.00002687,-0.00000001,0.00000001,-0.00001550,-0.0000
 0002,0.,-0.00000487,-0.00000339,-0.00000047,0.00405890,0.00000046,0.00
 000097,-0.00052127,0.00000031,0.00000227,0.01118592,0.00000340,-0.0000
 0087,0.00653498,0.00005273,0.00001285,-0.05315242,-0.00000013,0.000003
 48,-0.00103601,0.00000024,0.00000004,0.00033934,0.00001544,-0.00000007
 ,0.00980415,-0.00000224,-0.00000306,0.00487706,0.00000002,0.00000014,-
 0.00065232,-0.00000110,0.00000043,-0.00341062,0.00000037,0.,-0.0001882
 2,0.00000405,-0.00000379,-0.00304761,-0.00012418,0.00006975,0.03857926
 ,0.00009152,-0.00039573,0.,-0.00079886,0.00018056,0.00000002,-0.000997
 26,0.00224933,-0.00000049,0.00070325,0.00018203,0.00000018,-0.00008965
 ,0.00028255,0.00000007,-0.00033785,-0.00004175,-0.00000002,0.00002120,
 -0.00000638,0.,-0.00039741,0.00000309,-0.00000013,0.00000719,0.0000013
 3,-0.00000001,-0.00001704,-0.00004244,-0.00000001,-0.01175952,-0.00270
 438,0.00000300,-0.00092798,-0.00127513,-0.00000051,0.00176356,0.003023
 16,-0.00000122,0.00029022,0.00094483,-0.00000006,-0.04733513,0.0341704
 9,0.00001477,0.00074589,0.00133275,-0.00000002,0.00050057,0.00021250,0
 .,-0.00157213,-0.00479457,0.00000064,-0.00186001,0.00067344,0.00000051
 ,0.00006220,-0.00000254,-0.00000003,-0.00020063,0.00015960,-0.00000003
 ,-0.00020556,-0.00016858,-0.00000013,0.00489751,-0.00829799,0.00000151
 ,-0.16341745,0.15409163,0.00005493,0.22083339,0.00029643,0.00087599,0.
 00000035,0.00077267,0.00303911,0.00000034,0.01075087,-0.00242811,-0.00
 000149,-0.00085858,0.00090028,-0.00000026,-0.00042193,-0.00080034,-0.0
 0000005,0.00051456,0.00035381,0.,-0.00016284,0.00027622,0.00000005,0.0
 0025332,-0.00014349,-0.00000003,-0.00016239,0.00012597,0.00000002,-0.0
 0007384,0.00009814,0.,-0.00062143,0.00754709,-0.00001087,0.00118445,0.
 00433539,0.00000129,0.00041379,-0.00663502,0.00000013,-0.00356948,0.00
 003023,-0.00000005,0.01431792,0.02017557,-0.00000010,-0.00046740,-0.00
 522962,-0.00000028,-0.00048788,-0.00019412,0.,-0.01226930,0.00204362,0
 .00000114,0.00434990,0.00383326,-0.00000040,0.00004598,-0.00017726,0.0
 0000009,0.00031965,-0.00017209,0.00000013,-0.00045258,0.00006376,0.,-0
 .02030876,0.00113633,0.00000167,0.18641464,-0.31531309,-0.00008273,-0.
 17977778,0.28625838,-0.00000026,-0.00000029,0.00017346,0.00000025,-0.0
 0000112,0.00028217,-0.00000266,-0.00000108,-0.00057011,0.00000003,-0.0
 0000010,-0.00024424,0.00000014,-0.00000002,-0.00000723,-0.00000002,0.0
 0000002,-0.00004035,0.00000007,-0.00000010,0.00002203,-0.00000022,0.00
 000011,0.00011060,0.00000004,-0.00000004,0.00002004,0.00000002,-0.0000
 0003,-0.00000202,0.00000339,-0.00000158,-0.00818522,-0.00000084,-0.000
 00172,0.00087916,-0.00000079,0.00000097,-0.00183708,-0.00000010,-0.000
 00050,-0.00025042,0.00000207,-0.00000857,-0.00061731,0.00000029,0.0000
 0018,-0.00014062,-0.00000011,-0.00000002,-0.00005056,0.00000098,0.0000
 0049,0.00258368,-0.00000027,-0.00000022,0.00193264,-0.00000003,0.00000
 004,-0.00006891,-0.00000007,0.00000008,-0.00060468,0.00000001,0.000000
 06,-0.00029971,0.00000228,0.00000144,0.00149167,0.00006879,-0.00007904
 ,-0.01406401,-0.00007299,0.00009102,0.01948703\\0.00084207,-0.00089413
 ,-0.00000163,-0.00107397,-0.00223318,-0.00000460,-0.00264441,-0.000250
 04,0.00000110,-0.00047827,0.00062593,0.00000095,0.00038039,0.00208743,
 0.00000006,0.00084588,0.00076554,-0.00000024,0.00019755,-0.00015626,0.
 00000034,-0.00018827,0.00013591,-0.00000017,0.00002832,0.00018900,-0.0
 0000003,0.00014812,0.00009840,0.00000040,0.00156423,-0.00272845,0.0000
 1330,-0.00136462,-0.00527599,0.00000678,0.00109625,-0.00136776,-0.0000
 0062,-0.00235175,0.00101059,-0.00000504,-0.00267192,-0.00114995,0.0000
 1321,0.00061121,0.00001991,0.00000003,-0.00017492,0.00009261,0.0000004
 9,0.00171225,0.00011587,-0.00000103,0.00200313,0.00145252,-0.00000012,
 0.00002905,0.00017764,0.00000054,0.00021239,-0.00001872,-0.00000019,0.
 00022521,0.00017664,-0.00000048,0.00076542,0.00022072,-0.00001052,0.00
 201615,0.00129686,-0.00000083,-0.00172948,0.00560891,-0.00001169\\\@
 The archive entry for this job was punched.


 DO NOT LET SELFISH MEN OR GREEDY INTERESTS SKIN YOUR COUNTRY OF ITS
 BEAUTY, ITS RICHES, OR ITS ROMANCE. -- THEODORE ROOSEVELT
 Job cpu time:       0 days  0 hours 58 minutes 43.6 seconds.
 Elapsed time:       0 days  0 hours  5 minutes 54.2 seconds.
 File lengths (MBytes):  RWF=    544 Int=      0 D2E=      0 Chk=     36 Scr=      8
 Normal termination of Gaussian 16 at Tue Oct 27 23:08:20 2020.
