 Entering Gaussian System, Link 0=g16
 Initial command:
 /gpfs/loomis/apps/avx/software/Gaussian/16-C.01_AVX/g16/l1.exe "/home/fas/batista/pev4/scratch60/gauss-scratch/Gau-33864.inp" -scrdir="/home/fas/batista/pev4/scratch60/gauss-scratch/"
 Entering Link 1 = /gpfs/loomis/apps/avx/software/Gaussian/16-C.01_AVX/g16/l1.exe PID=     33865.
  
 Copyright (c) 1988-2019, Gaussian, Inc.  All Rights Reserved.
  
 This is part of the Gaussian(R) 16 program.  It is based on
 the Gaussian(R) 09 system (copyright 2009, Gaussian, Inc.),
 the Gaussian(R) 03 system (copyright 2003, Gaussian, Inc.),
 the Gaussian(R) 98 system (copyright 1998, Gaussian, Inc.),
 the Gaussian(R) 94 system (copyright 1995, Gaussian, Inc.),
 the Gaussian 92(TM) system (copyright 1992, Gaussian, Inc.),
 the Gaussian 90(TM) system (copyright 1990, Gaussian, Inc.),
 the Gaussian 88(TM) system (copyright 1988, Gaussian, Inc.),
 the Gaussian 86(TM) system (copyright 1986, Carnegie Mellon
 University), and the Gaussian 82(TM) system (copyright 1983,
 Carnegie Mellon University). Gaussian is a federally registered
 trademark of Gaussian, Inc.
  
 This software contains proprietary and confidential information,
 including trade secrets, belonging to Gaussian, Inc.
  
 This software is provided under written license and may be
 used, copied, transmitted, or stored only in accord with that
 written license.
  
 The following legend is applicable only to US Government
 contracts under FAR:
  
                    RESTRICTED RIGHTS LEGEND
  
 Use, reproduction and disclosure by the US Government is
 subject to restrictions as set forth in subparagraphs (a)
 and (c) of the Commercial Computer Software - Restricted
 Rights clause in FAR 52.227-19.
  
 Gaussian, Inc.
 340 Quinnipiac St., Bldg. 40, Wallingford CT 06492
  
  
 ---------------------------------------------------------------
 Warning -- This program may not be used in any manner that
 competes with the business of Gaussian, Inc. or will provide
 assistance to any competitor of Gaussian, Inc.  The licensee
 of this program is prohibited from giving any competitor of
 Gaussian, Inc. access to this program.  By using this program,
 the user acknowledges that Gaussian, Inc. is engaged in the
 business of creating and licensing software in the field of
 computational chemistry and represents and warrants to the
 licensee that it is not a competitor of Gaussian, Inc. and that
 it will not use this program in any manner prohibited above.
 ---------------------------------------------------------------
  

 Cite this work as:
 Gaussian 16, Revision C.01,
 M. J. Frisch, G. W. Trucks, H. B. Schlegel, G. E. Scuseria, 
 M. A. Robb, J. R. Cheeseman, G. Scalmani, V. Barone, 
 G. A. Petersson, H. Nakatsuji, X. Li, M. Caricato, A. V. Marenich, 
 J. Bloino, B. G. Janesko, R. Gomperts, B. Mennucci, H. P. Hratchian, 
 J. V. Ortiz, A. F. Izmaylov, J. L. Sonnenberg, D. Williams-Young, 
 F. Ding, F. Lipparini, F. Egidi, J. Goings, B. Peng, A. Petrone, 
 T. Henderson, D. Ranasinghe, V. G. Zakrzewski, J. Gao, N. Rega, 
 G. Zheng, W. Liang, M. Hada, M. Ehara, K. Toyota, R. Fukuda, 
 J. Hasegawa, M. Ishida, T. Nakajima, Y. Honda, O. Kitao, H. Nakai, 
 T. Vreven, K. Throssell, J. A. Montgomery, Jr., J. E. Peralta, 
 F. Ogliaro, M. J. Bearpark, J. J. Heyd, E. N. Brothers, K. N. Kudin, 
 V. N. Staroverov, T. A. Keith, R. Kobayashi, J. Normand, 
 K. Raghavachari, A. P. Rendell, J. C. Burant, S. S. Iyengar, 
 J. Tomasi, M. Cossi, J. M. Millam, M. Klene, C. Adamo, R. Cammi, 
 J. W. Ochterski, R. L. Martin, K. Morokuma, O. Farkas, 
 J. B. Foresman, and D. J. Fox, Gaussian, Inc., Wallingford CT, 2019.
 
 ******************************************
 Gaussian 16:  ES64L-G16RevC.01  3-Jul-2019
                27-Oct-2020 
 ******************************************
 %chk=config_2_3.chk
 %mem=58GB
 %nprocshared=10
 Will use up to   10 processors via shared memory.
 ----------------------------------------------------------------------
 #p opt=addgic freq wb97xd/cc-pvdz nosymm int=ultrafine scrf=(solvent=C
 arbonTetraChloride)
 ----------------------------------------------------------------------
 1/18=20,19=15,26=6,38=1,145=903/1,3;
 2/9=110,12=2,15=1,17=6,18=5,40=1/2;
 3/5=16,11=2,25=1,30=1,70=2201,71=1,72=11,74=-58,75=-5/1,2,3;
 4//1;
 5/5=2,38=5,53=11/2;
 6/7=2,8=2,9=2,10=2,28=1/1;
 7/30=1/1,2,3,16;
 1/18=20,19=15,26=6,145=903/3(2);
 2/9=110,15=1/2;
 99//99;
 2/9=110,15=1/2;
 3/5=16,11=2,25=1,30=1,70=2205,71=1,72=11,74=-58,75=-5/1,2,3;
 4/5=5,16=3,69=1/1;
 5/5=2,38=5,53=11/2;
 7/30=1/1,2,3,16;
 1/18=20,19=15,26=6,145=903/3(-5);
 2/9=110,15=1/2;
 6/7=2,8=2,9=2,10=2,19=2,28=1/1;
 99/9=1/99;
 Leave Link    1 at Tue Oct 27 20:56:06 2020, MaxMem=  7784628224 cpu:               3.9 elap:               0.4
 (Enter /gpfs/loomis/apps/avx/software/Gaussian/16-C.01_AVX/g16/l101.exe)
 ------------------------------------------------
 NM 2D-scan of HBT TD-WB97XD pVDZ in CTC Relaxed.
 ------------------------------------------------
 Symbolic Z-matrix:
 Charge =  0 Multiplicity = 1
 C                     1.73242  -3.27675  -0.00002 
 C                     0.99334  -2.09445  -0.00002 
 C                     1.65504  -0.82526  -0.00002 
 C                     3.08216  -0.7679   -0.00002 
 C                     3.79431  -1.94743  -0.00002 
 C                     3.12977  -3.19658  -0.00002 
 H                     1.23678  -4.25099  -0.00003 
 H                     3.57065   0.21013  -0.00002 
 H                     4.88691  -1.92443  -0.00002 
 H                     3.71679  -4.11799  -0.00003 
 N                     0.87088   0.22922  -0.00002 
 S                    -0.74968  -1.83326  -0.00002 
 C                    -1.40018   0.99562  0. 
 C                    -2.82741   0.8826   -0.00001 
 C                    -0.88713   2.38594   0.00003 
 C                    -3.63965   2.00399   0.00002 
 H                    -3.27144  -0.1147   -0.00004 
 C                    -1.73431   3.50071   0.00006 
 C                    -3.1109    3.32557   0.00006 
 H                    -4.72465   1.87145   0.00002 
 H                    -1.27284   4.49028   0.00009 
 H                    -3.78077   4.18693   0.00009 
 C                    -0.4566   -0.05641  -0.00001 
 O                     0.41817   2.6155    0.00003 
 H                     0.74452   2.04324   0.00002 
 
 Initializing the GIC definitions file.
 Number of initial coordinates =   131
 Number of input entries/lines =    52
 Number of additional coordinates =     2
 Number of removed coordinates =     0
 Number of frozen coordinates =     2
 Number of final active and frozen coordinates =   133
 ITRead=  0  0  0  0  0  0  0  0  0  0  0  0  0  0  0  0  0  0  0  0
 ITRead=  0  0  0  0  0
 MicOpt= -1 -1 -1 -1 -1 -1 -1 -1 -1 -1 -1 -1 -1 -1 -1 -1 -1 -1 -1 -1
 MicOpt= -1 -1 -1 -1 -1
 NAtoms=     25 NQM=       25 NQMF=       0 NMMI=      0 NMMIF=      0
                NMic=       0 NMicF=      0.
                    Isotopes and Nuclear Properties:
 (Nuclear quadrupole moments (NQMom) in fm**2, nuclear magnetic moments (NMagM)
  in nuclear magnetons)

  Atom         1           2           3           4           5           6           7           8           9          10
 IAtWgt=          12          12          12          12          12          12           1           1           1           1
 AtmWgt=  12.0000000  12.0000000  12.0000000  12.0000000  12.0000000  12.0000000   1.0078250   1.0078250   1.0078250   1.0078250
 NucSpn=           0           0           0           0           0           0           1           1           1           1
 AtZEff=  -0.0000000  -0.0000000  -0.0000000  -0.0000000  -0.0000000  -0.0000000  -0.0000000  -0.0000000  -0.0000000  -0.0000000
 NQMom=    0.0000000   0.0000000   0.0000000   0.0000000   0.0000000   0.0000000   0.0000000   0.0000000   0.0000000   0.0000000
 NMagM=    0.0000000   0.0000000   0.0000000   0.0000000   0.0000000   0.0000000   2.7928460   2.7928460   2.7928460   2.7928460
 AtZNuc=   6.0000000   6.0000000   6.0000000   6.0000000   6.0000000   6.0000000   1.0000000   1.0000000   1.0000000   1.0000000

  Atom        11          12          13          14          15          16          17          18          19          20
 IAtWgt=          14          32          12          12          12          12           1          12          12           1
 AtmWgt=  14.0030740  31.9720718  12.0000000  12.0000000  12.0000000  12.0000000   1.0078250  12.0000000  12.0000000   1.0078250
 NucSpn=           2           0           0           0           0           0           1           0           0           1
 AtZEff=  -0.0000000  -0.0000000  -0.0000000  -0.0000000  -0.0000000  -0.0000000  -0.0000000  -0.0000000  -0.0000000  -0.0000000
 NQMom=    2.0440000   0.0000000   0.0000000   0.0000000   0.0000000   0.0000000   0.0000000   0.0000000   0.0000000   0.0000000
 NMagM=    0.4037610   0.0000000   0.0000000   0.0000000   0.0000000   0.0000000   2.7928460   0.0000000   0.0000000   2.7928460
 AtZNuc=   7.0000000  16.0000000   6.0000000   6.0000000   6.0000000   6.0000000   1.0000000   6.0000000   6.0000000   1.0000000

  Atom        21          22          23          24          25
 IAtWgt=           1           1          12          16           1
 AtmWgt=   1.0078250   1.0078250  12.0000000  15.9949146   1.0078250
 NucSpn=           1           1           0           0           1
 AtZEff=  -0.0000000  -0.0000000  -0.0000000  -0.0000000  -0.0000000
 NQMom=    0.0000000   0.0000000   0.0000000   0.0000000   0.0000000
 NMagM=    2.7928460   2.7928460   0.0000000   0.0000000   2.7928460
 AtZNuc=   1.0000000   1.0000000   6.0000000   8.0000000   1.0000000
 Leave Link  101 at Tue Oct 27 20:56:10 2020, MaxMem=  7784628224 cpu:              31.6 elap:               3.2
 (Enter /gpfs/loomis/apps/avx/software/Gaussian/16-C.01_AVX/g16/l103.exe)

 GradGradGradGradGradGradGradGradGradGradGradGradGradGradGradGradGradGrad
 Berny optimization.
 Initialization pass.
                           ----------------------------
                           !    Initial Parameters    !
                           ! (Angstroms and Degrees)  !
 --------------------------                            --------------------------
 ! Name  Definition              Value          Derivative Info.                !
 --------------------------------------------------------------------------------
 ! R1    R(1,2)                  1.3943         estimate D2E/DX2                !
 ! R2    R(1,6)                  1.3997         estimate D2E/DX2                !
 ! R3    R(1,7)                  1.0931         estimate D2E/DX2                !
 ! R4    R(2,3)                  1.4313         estimate D2E/DX2                !
 ! R5    R(2,12)                 1.7625         estimate D2E/DX2                !
 ! R6    R(3,4)                  1.4283         estimate D2E/DX2                !
 ! R7    R(3,11)                 1.3141         estimate D2E/DX2                !
 ! R8    R(4,5)                  1.3778         estimate D2E/DX2                !
 ! R9    R(4,8)                  1.0932         estimate D2E/DX2                !
 ! R10   R(5,6)                  1.4149         estimate D2E/DX2                !
 ! R11   R(5,9)                  1.0928         estimate D2E/DX2                !
 ! R12   R(6,10)                 1.0925         estimate D2E/DX2                !
 ! R13   R(11,23)                1.3579         estimate D2E/DX2                !
 ! R14   R(12,23)                1.8009         estimate D2E/DX2                !
 ! R15   R(13,14)                1.4317         estimate D2E/DX2                !
 ! R16   R(13,15)                1.482          estimate D2E/DX2                !
 ! R17   R(13,23)                1.4132         estimate D2E/DX2                !
 ! R18   R(14,16)                1.3847         estimate D2E/DX2                !
 ! R19   R(14,17)                1.0917         estimate D2E/DX2                !
 ! R20   R(15,18)                1.4002         estimate D2E/DX2                !
 ! R21   R(15,24)                1.3253         estimate D2E/DX2                !
 ! R22   R(16,19)                1.4234         estimate D2E/DX2                !
 ! R23   R(16,20)                1.0931         estimate D2E/DX2                !
 ! R24   R(18,19)                1.3877         estimate D2E/DX2                !
 ! R25   R(18,21)                1.0919         estimate D2E/DX2                !
 ! R26   R(19,22)                1.0912         estimate D2E/DX2                !
 ! R27   R(24,25)                0.6588         estimate D2E/DX2                !
 ! A1    A(2,1,6)              118.7265         estimate D2E/DX2                !
 ! A2    A(2,1,7)              121.0259         estimate D2E/DX2                !
 ! A3    A(6,1,7)              120.2476         estimate D2E/DX2                !
 ! A4    A(1,2,3)              120.4544         estimate D2E/DX2                !
 ! A5    A(1,2,12)             130.5324         estimate D2E/DX2                !
 ! A6    A(3,2,12)             109.0132         estimate D2E/DX2                !
 ! A7    A(2,3,4)              119.8372         estimate D2E/DX2                !
 ! A8    A(2,3,11)             115.8283         estimate D2E/DX2                !
 ! A9    A(4,3,11)             124.3345         estimate D2E/DX2                !
 ! A10   A(3,4,5)              118.8202         estimate D2E/DX2                !
 ! A11   A(3,4,8)              118.8418         estimate D2E/DX2                !
 ! A12   A(5,4,8)              122.338          estimate D2E/DX2                !
 ! A13   A(4,5,6)              120.8657         estimate D2E/DX2                !
 ! A14   A(4,5,9)              119.9161         estimate D2E/DX2                !
 ! A15   A(6,5,9)              119.2182         estimate D2E/DX2                !
 ! A16   A(1,6,5)              121.296          estimate D2E/DX2                !
 ! A17   A(1,6,10)             119.2171         estimate D2E/DX2                !
 ! A18   A(5,6,10)             119.4869         estimate D2E/DX2                !
 ! A19   A(3,11,23)            114.4929         estimate D2E/DX2                !
 ! A20   A(2,12,23)             89.1561         estimate D2E/DX2                !
 ! A21   A(14,13,15)           114.7827         estimate D2E/DX2                !
 ! A22   A(14,13,23)           127.3616         estimate D2E/DX2                !
 ! A23   A(15,13,23)           117.8557         estimate D2E/DX2                !
 ! A24   A(13,14,16)           121.3889         estimate D2E/DX2                !
 ! A25   A(13,14,17)           118.5283         estimate D2E/DX2                !
 ! A26   A(16,14,17)           120.0828         estimate D2E/DX2                !
 ! A27   A(13,15,18)           122.5116         estimate D2E/DX2                !
 ! A28   A(13,15,24)           120.2296         estimate D2E/DX2                !
 ! A29   A(18,15,24)           117.2588         estimate D2E/DX2                !
 ! A30   A(14,16,19)           122.2773         estimate D2E/DX2                !
 ! A31   A(14,16,20)           118.9525         estimate D2E/DX2                !
 ! A32   A(19,16,20)           118.7702         estimate D2E/DX2                !
 ! A33   A(15,18,19)           119.9831         estimate D2E/DX2                !
 ! A34   A(15,18,21)           117.7651         estimate D2E/DX2                !
 ! A35   A(19,18,21)           122.2519         estimate D2E/DX2                !
 ! A36   A(16,19,18)           119.0565         estimate D2E/DX2                !
 ! A37   A(16,19,22)           120.322          estimate D2E/DX2                !
 ! A38   A(18,19,22)           120.6215         estimate D2E/DX2                !
 ! A39   A(11,23,12)           111.5095         estimate D2E/DX2                !
 ! A40   A(11,23,13)           119.7462         estimate D2E/DX2                !
 ! A41   A(12,23,13)           128.7444         estimate D2E/DX2                !
 ! A42   A(15,24,25)           109.7207         estimate D2E/DX2                !
 ! D1    D(6,1,2,3)              0.0001         estimate D2E/DX2                !
 ! D2    D(6,1,2,12)          -179.9999         estimate D2E/DX2                !
 ! D3    D(7,1,2,3)            180.0            estimate D2E/DX2                !
 ! D4    D(7,1,2,12)             0.0            estimate D2E/DX2                !
 ! D5    D(2,1,6,5)              0.0            estimate D2E/DX2                !
 ! D6    D(2,1,6,10)           180.0            estimate D2E/DX2                !
 ! D7    D(7,1,6,5)           -179.9999         estimate D2E/DX2                !
 ! D8    D(7,1,6,10)             0.0001         estimate D2E/DX2                !
 ! D9    D(1,2,3,4)             -0.0001         estimate D2E/DX2                !
 ! D10   D(1,2,3,11)           179.9999         estimate D2E/DX2                !
 ! D11   D(12,2,3,4)           179.9999         estimate D2E/DX2                !
 ! D12   D(12,2,3,11)           -0.0001         estimate D2E/DX2                !
 ! D13   D(1,2,12,23)          180.0            estimate D2E/DX2                !
 ! D14   D(3,2,12,23)            0.0            estimate D2E/DX2                !
 ! D15   D(2,3,4,5)              0.0001         estimate D2E/DX2                !
 ! D16   D(2,3,4,8)           -179.9999         estimate D2E/DX2                !
 ! D17   D(11,3,4,5)          -180.0            estimate D2E/DX2                !
 ! D18   D(11,3,4,8)             0.0            estimate D2E/DX2                !
 ! D19   D(2,3,11,23)            0.0002         estimate D2E/DX2                !
 ! D20   D(4,3,11,23)         -179.9998         estimate D2E/DX2                !
 ! D21   D(3,4,5,6)              0.0            estimate D2E/DX2                !
 ! D22   D(3,4,5,9)            180.0            estimate D2E/DX2                !
 ! D23   D(8,4,5,6)           -180.0            estimate D2E/DX2                !
 ! D24   D(8,4,5,9)              0.0            estimate D2E/DX2                !
 ! D25   D(4,5,6,1)              0.0            estimate D2E/DX2                !
 ! D26   D(4,5,6,10)           180.0            estimate D2E/DX2                !
 ! D27   D(9,5,6,1)            180.0            estimate D2E/DX2                !
 ! D28   D(9,5,6,10)             0.0            estimate D2E/DX2                !
 ! D29   D(3,11,23,12)          -0.0002         estimate D2E/DX2                !
 ! D30   D(3,11,23,13)         179.9995         estimate D2E/DX2                !
 ! D31   D(2,12,23,11)           0.0001         estimate D2E/DX2                !
 ! D32   D(2,12,23,13)        -179.9996         estimate D2E/DX2                !
 ! D33   D(15,13,14,16)         -0.0007         estimate D2E/DX2                !
 ! D34   D(15,13,14,17)        179.9995         estimate D2E/DX2                !
 ! D35   D(23,13,14,16)        179.9992         estimate D2E/DX2                !
 ! D36   D(23,13,14,17)         -0.0006         estimate D2E/DX2                !
 ! D37   D(14,13,15,18)          0.0008         estimate D2E/DX2                !
 ! D38   D(14,13,15,24)       -179.9994         estimate D2E/DX2                !
 ! D39   D(23,13,15,18)       -179.9991         estimate D2E/DX2                !
 ! D40   D(23,13,15,24)          0.0008         estimate D2E/DX2                !
 ! D41   D(14,13,23,11)        179.9992         estimate D2E/DX2                !
 ! D42   D(14,13,23,12)         -0.0011         estimate D2E/DX2                !
 ! D43   D(15,13,23,11)         -0.001          estimate D2E/DX2                !
 ! D44   D(15,13,23,12)        179.9987         estimate D2E/DX2                !
 ! D45   D(13,14,16,19)          0.0001         estimate D2E/DX2                !
 ! D46   D(13,14,16,20)       -179.9998         estimate D2E/DX2                !
 ! D47   D(17,14,16,19)        179.9999         estimate D2E/DX2                !
 ! D48   D(17,14,16,20)          0.0            estimate D2E/DX2                !
 ! D49   D(13,15,18,19)         -0.0003         estimate D2E/DX2                !
 ! D50   D(13,15,18,21)        179.9998         estimate D2E/DX2                !
 ! D51   D(24,15,18,19)        179.9998         estimate D2E/DX2                !
 ! D52   D(24,15,18,21)         -0.0001         estimate D2E/DX2                !
 ! D53   D(13,15,24,25)         -0.0006         estimate D2E/DX2                !
 ! D54   D(18,15,24,25)        179.9993         estimate D2E/DX2                !
 ! D55   D(14,16,19,18)          0.0003         estimate D2E/DX2                !
 ! D56   D(14,16,19,22)       -179.9998         estimate D2E/DX2                !
 ! D57   D(20,16,19,18)       -179.9997         estimate D2E/DX2                !
 ! D58   D(20,16,19,22)          0.0002         estimate D2E/DX2                !
 ! D59   D(15,18,19,16)         -0.0002         estimate D2E/DX2                !
 ! D60   D(15,18,19,22)        179.9999         estimate D2E/DX2                !
 ! D61   D(21,18,19,16)        179.9997         estimate D2E/DX2                !
 ! D62   D(21,18,19,22)         -0.0002         estimate D2E/DX2                !
 ! Qtot  GIC-1                 -40.0            Frozen                          !
 ! Ptot  GIC-2                 -100.0           Frozen                          !
 --------------------------------------------------------------------------------
 NOTE: GIC-type coordinates are in arbitrary units.
 Trust Radius=3.00D-01 FncErr=5.00D-06 GrdErr=5.00D-06 EigMax=2.50D+02 EigMin=1.00D-04
 Number of steps in this run=    143 maximum allowed number of steps=    150.
 GradGradGradGradGradGradGradGradGradGradGradGradGradGradGradGradGradGrad

 Leave Link  103 at Tue Oct 27 20:56:10 2020, MaxMem=  7784628224 cpu:               0.1 elap:               0.0
 (Enter /gpfs/loomis/apps/avx/software/Gaussian/16-C.01_AVX/g16/l202.exe)
                          Input orientation:                          
 ---------------------------------------------------------------------
 Center     Atomic      Atomic             Coordinates (Angstroms)
 Number     Number       Type             X           Y           Z
 ---------------------------------------------------------------------
      1          6           0        1.732415   -3.276751   -0.000024
      2          6           0        0.993342   -2.094447   -0.000021
      3          6           0        1.655040   -0.825261   -0.000019
      4          6           0        3.082164   -0.767901   -0.000019
      5          6           0        3.794312   -1.947426   -0.000022
      6          6           0        3.129773   -3.196584   -0.000025
      7          1           0        1.236782   -4.250993   -0.000025
      8          1           0        3.570648    0.210128   -0.000017
      9          1           0        4.886905   -1.924431   -0.000022
     10          1           0        3.716791   -4.117995   -0.000027
     11          7           0        0.870879    0.229225   -0.000018
     12         16           0       -0.749676   -1.833255   -0.000018
     13          6           0       -1.400177    0.995620   -0.000001
     14          6           0       -2.827406    0.882598   -0.000010
     15          6           0       -0.887127    2.385938    0.000030
     16          6           0       -3.639655    2.003987    0.000021
     17          1           0       -3.271440   -0.114698   -0.000040
     18          6           0       -1.734311    3.500708    0.000063
     19          6           0       -3.110897    3.325573    0.000062
     20          1           0       -4.724650    1.871454    0.000016
     21          1           0       -1.272837    4.490279    0.000088
     22          1           0       -3.780769    4.186931    0.000090
     23          6           0       -0.456597   -0.056409   -0.000013
     24          8           0        0.418170    2.615503    0.000029
     25          1           0        0.744522    2.043239    0.000020
 ---------------------------------------------------------------------
                    Distance matrix (angstroms):
                    1          2          3          4          5
     1  C    0.000000
     2  C    1.394300   0.000000
     3  C    2.452711   1.431320   0.000000
     4  C    2.848885   2.474449   1.428276   0.000000
     5  C    2.453267   2.804825   2.415727   1.377837   0.000000
     6  C    1.399656   2.403964   2.792492   2.429149   1.414922
     7  H    1.093069   2.170243   3.451171   3.941746   3.442002
     8  H    3.941754   3.457394   2.177518   1.093233   2.169116
     9  H    3.432139   3.897273   3.413667   2.143514   1.092836
    10  H    2.155328   3.392922   3.884960   3.409674   2.171952
    11  N    3.610278   2.326896   1.314096   2.425705   3.644759
    12  S    2.871316   1.762480   2.607435   3.977182   4.545422
    13  C    5.297763   3.908638   3.556678   4.816782   5.970279
    14  C    6.171884   4.843647   4.796781   6.135728   7.201123
    15  C    6.239235   4.859014   4.095658   5.069711   6.379178
    16  C    7.532949   6.185614   6.003202   7.270915   8.418879
    17  H    5.919219   4.701891   4.977460   6.387093   7.299571
    18  C    7.612630   6.224616   5.495608   6.435795   7.761948
    19  C    8.188306   6.798632   6.320093   7.423647   8.688293
    20  H    8.258190   6.958722   6.926234   8.240907   9.335768
    21  H    8.328163   6.963777   6.068561   6.827481   8.192682
    22  H    9.279103   7.889730   7.393922   8.464645   9.747419
    23  C    3.893890   2.501184   2.247253   3.609577   4.652544
    24  O    6.037043   4.744939   3.656324   4.306308   5.676148
    25  H    5.410936   4.145161   3.009541   3.656102   5.022612
                    6          7          8          9         10
     6  C    0.000000
     7  H    2.166840   0.000000
     8  H    3.435121   5.034733   0.000000
     9  H    2.169305   4.328544   2.507762   0.000000
    10  H    1.092515   2.483573   4.330589   2.486140   0.000000
    11  N    4.103507   4.495135   2.699837   4.557050   5.195915
    12  S    4.112031   3.129133   4.779186   5.637319   5.016908
    13  C    6.172117   5.872010   5.032505   6.932106   7.234115
    14  C    7.219952   6.547624   6.433297   8.209141   8.236045
    15  C    6.877502   6.968490   4.960435   7.205465   7.968514
    16  C    8.536457   7.931230   7.430101   9.388008   9.570578
    17  H    7.104474   6.118252   6.849795   8.356658   8.053680
    18  C    8.277260   8.301582   6.242637   8.559944   9.367985
    19  C    9.026876   8.735369   7.372181   9.566994  10.100694
    20  H    9.347565   8.545351   8.460023  10.333960  10.350431
    21  H    8.858377   9.094396   6.463671   8.893308   9.949812
    22  H   10.112956   9.817045   8.358128  10.605532  11.188619
    23  C    4.766838   4.523502   4.036056   5.660611   5.823542
    24  O    6.413512   6.915120   3.965344   6.370290   7.498059
    25  H    5.757184   6.313453   3.368574   5.736004   6.840701
                   11         12         13         14         15
    11  N    0.000000
    12  S    2.622979   0.000000
    13  C    2.396884   2.902704   0.000000
    14  C    3.755556   3.419476   1.431697   0.000000
    15  C    2.782445   4.221432   1.481960   2.454529   0.000000
    16  C    4.847132   4.803790   2.456026   1.384652   2.778902
    17  H    4.156572   3.051677   2.175876   1.091680   3.455160
    18  C    4.182059   5.424082   2.527273   2.837138   1.400154
    19  C    5.043997   5.673524   2.890544   2.459368   2.414139
    20  H    5.831540   5.433718   3.437907   2.139479   3.871857
    21  H    4.769916   6.345139   3.496978   3.928365   2.139398
    22  H    6.107476   6.740190   3.981417   3.439116   3.408334
    23  C    1.357858   1.800855   1.413191   2.549994   2.480003
    24  O    2.428841   4.599490   2.435242   3.679228   1.325330
    25  H    1.818410   4.154496   2.386889   3.755763   1.667249
                   16         17         18         19         20
    16  C    0.000000
    17  H    2.150443   0.000000
    18  C    2.422913   3.928603   0.000000
    19  C    1.423438   3.444015   1.387682   0.000000
    20  H    1.093060   2.461020   3.405377   2.172248   0.000000
    21  H    3.432707   5.019983   1.091884   2.176007   4.332812
    22  H    2.187500   4.331677   2.158447   1.091176   2.500469
    23  C    3.791713   2.815447   3.779634   4.299199   4.683261
    24  O    4.103644   4.589904   2.327394   3.599793   5.196365
    25  H    4.384352   4.559018   2.875557   4.063082   5.471869
                   21         22         23         24         25
    21  H    0.000000
    22  H    2.526212   0.000000
    23  C    4.619375   5.390367   0.000000
    24  O    2.524736   4.483355   2.811464   0.000000
    25  H    3.171394   5.007362   2.418927   0.658780   0.000000
 Symmetry turned off by external request.
 Stoichiometry    C13H9NOS
 Framework group  C1[X(C13H9NOS)]
 Deg. of freedom    69
 Full point group                 C1      NOp   1
 Rotational constants (GHZ):           1.3436132           0.2855276           0.2354853
 Leave Link  202 at Tue Oct 27 20:56:10 2020, MaxMem=  7784628224 cpu:               0.1 elap:               0.0
 (Enter /gpfs/loomis/apps/avx/software/Gaussian/16-C.01_AVX/g16/l301.exe)
 Standard basis: CC-pVDZ (5D, 7F)
 Ernie: Thresh=  0.10000D-02 Tol=  0.10000D-05 Strict=F.
 Ernie:  40 primitive shells out of 425 were deleted.
   273 basis functions,   629 primitive gaussians,   289 cartesian basis functions
    59 alpha electrons       59 beta electrons
       nuclear repulsion energy      1096.0988577094 Hartrees.
 IExCor= 4639 DFT=T Ex+Corr=wB97XD ExCW=0 ScaHFX=  1.000000
 ScaDFX=  1.000000  1.000000  1.000000  1.000000 ScalE2=  1.000000  1.000000
 IRadAn=      5 IRanWt=     -1 IRanGd=            0 ICorTp=0 IEmpDi=121
 HFx  wShort=  0.000000 wLong=  0.200000 cFull=  0.222036 cShort=  0.000000 cLong=  0.777964
 DFx  wShort=  0.000000 wLong=  0.200000 cFull=  0.000000 cShort=  0.000000 cLong=  1.000000
 NAtoms=   25 NActive=   25 NUniq=   25 SFac= 1.00D+00 NAtFMM=   60 NAOKFM=F Big=F
 Integral buffers will be    131072 words long.
 Raffenetti 2 integral format.
 Two-electron integral symmetry is turned off.
 R6Disp:  Grimme-D2 Dispersion energy=       -0.0140126423 Hartrees.
 Nuclear repulsion after empirical dispersion term =     1096.0848450671 Hartrees.
 ------------------------------------------------------------------------------
 Polarizable Continuum Model (PCM)
 =================================
 Model                : PCM.
 Atomic radii         : UFF (Universal Force Field).
 Polarization charges : Total charges.
 Charge compensation  : None.
 Solution method      : On-the-fly selection.
 Cavity type          : Scaled VdW (van der Waals Surface) (Alpha=1.100).
 Cavity algorithm     : GePol (No added spheres)
                        Default sphere list used, NSphG=   25.
                        Lebedev-Laikov grids with approx.  5.0 points / Ang**2.
                        Smoothing algorithm: York/Karplus (Gamma=1.0000).
                        Polarization charges: spherical gaussians, with
                                              point-specific exponents (IZeta= 3).
                        Self-potential: point-specific (ISelfS= 7).
                        Self-field    : sphere-specific E.n sum rule (ISelfD= 2).
 1st derivatives      : Analytical E(r).r(x)/FMM algorithm (CHGder, D1EAlg=3).
                        Cavity 1st derivative terms included.
 Solvent              : CarbonTetraChloride, Eps=   2.228000 Eps(inf)=   2.131892
 ------------------------------------------------------------------------------
 GePol: Number of generator spheres                  =      25
 GePol: Total number of spheres                      =      25
 GePol: Number of exposed spheres                    =      25 (100.00%)
 GePol: Number of points                             =    2203
 GePol: Average weight of points                     =       0.13
 GePol: Minimum weight of points                     =   0.33D-08
 GePol: Maximum weight of points                     =    0.20577
 GePol: Number of points with low weight             =     124
 GePol: Fraction of low-weight points (<1% of avg)   =       5.63%
 GePol: Cavity surface area                          =    275.878 Ang**2
 GePol: Cavity volume                                =    294.487 Ang**3
 Leave Link  301 at Tue Oct 27 20:56:10 2020, MaxMem=  7784628224 cpu:               0.8 elap:               0.1
 (Enter /gpfs/loomis/apps/avx/software/Gaussian/16-C.01_AVX/g16/l302.exe)
 NPDir=0 NMtPBC=     1 NCelOv=     1 NCel=       1 NClECP=     1 NCelD=      1
         NCelK=      1 NCelE2=     1 NClLst=     1 CellRange=     0.0.
 One-electron integrals computed using PRISM.
 NBasis=   273 RedAO= T EigKep=  3.20D-04  NBF=   273
 NBsUse=   273 1.00D-06 EigRej= -1.00D+00 NBFU=   273
 Precomputing XC quadrature grid using
 IXCGrd= 4 IRadAn=           5 IRanWt=          -1 IRanGd=           0 AccXCQ= 0.00D+00.
 Generated NRdTot=       0 NPtTot=           0 NUsed=           0 NTot=          32
 NSgBfM=   288   288   288   288   288 MxSgAt=    25 MxSgA2=    25.
 Leave Link  302 at Tue Oct 27 20:56:10 2020, MaxMem=  7784628224 cpu:               2.5 elap:               0.3
 (Enter /gpfs/loomis/apps/avx/software/Gaussian/16-C.01_AVX/g16/l303.exe)
 DipDrv:  MaxL=1.
 Leave Link  303 at Tue Oct 27 20:56:10 2020, MaxMem=  7784628224 cpu:               0.4 elap:               0.1
 (Enter /gpfs/loomis/apps/avx/software/Gaussian/16-C.01_AVX/g16/l401.exe)
 ExpMin= 1.22D-01 ExpMax= 1.11D+05 ExpMxC= 1.07D+03 IAcc=3 IRadAn=         5 AccDes= 0.00D+00
 Harris functional with IExCor= 4639 and IRadAn=       5 diagonalized for initial guess.
 HarFok:  IExCor= 4639 AccDes= 0.00D+00 IRadAn=         5 IDoV= 1 UseB2=F ITyADJ=14
 ICtDFT=  3500011 ScaDFX=  1.000000  1.000000  1.000000  1.000000
 FoFCou: FMM=F IPFlag=           0 FMFlag=      100000 FMFlg1=           0
         NFxFlg=           0 DoJE=T BraDBF=F KetDBF=T FulRan=T
         wScrn=  0.000000 ICntrl=       500 IOpCl=  0 I1Cent=   200000004 NGrid=           0
         NMat0=    1 NMatS0=      1 NMatT0=    0 NMatD0=    1 NMtDS0=    0 NMtDT0=    0
 Symmetry not used in FoFCou.
 Harris En= -994.218032486678    
 JPrj=0 DoOrth=F DoCkMO=F.
 Leave Link  401 at Tue Oct 27 20:56:12 2020, MaxMem=  7784628224 cpu:              13.7 elap:               1.4
 (Enter /gpfs/loomis/apps/avx/software/Gaussian/16-C.01_AVX/g16/l502.exe)
 Two-electron integral symmetry not used.
 Closed shell SCF:
 Using DIIS extrapolation, IDIIS=  1040.
 NGot=  7784628224 LenX=  7784455381 LenY=  7784371419
 Requested convergence on RMS density matrix=1.00D-08 within 128 cycles.
 Requested convergence on MAX density matrix=1.00D-06.
 Requested convergence on             energy=1.00D-06.
 No special actions if energy rises.
 Fock matrices will be formed incrementally for  20 cycles.

 Cycle   1  Pass 1  IDiag  1:
 FoFJK:  IHMeth= 1 ICntrl=       0 DoSepK=T KAlg= 0 I1Cent=           0 FoldK=F
 IRaf=         1 NMat=       1 IRICut=       1 DoRegI=T DoRafI=F ISym2E= 0 IDoP0=0 IntGTp=1.
 FoFCou: FMM=F IPFlag=           0 FMFlag=      100000 FMFlg1=           0
         NFxFlg=           0 DoJE=T BraDBF=F KetDBF=F FulRan=T
         wScrn=  0.000000 ICntrl=       500 IOpCl=  0 I1Cent=           0 NGrid=           0
         NMat0=    1 NMatS0=      1 NMatT0=    0 NMatD0=    1 NMtDS0=    0 NMtDT0=    0
 Symmetry not used in FoFCou.
 Inv3:  Mode=1 IEnd=    14559627.
 Iteration    1 A*A^-1 deviation from unit magnitude is 4.22D-15 for   2178.
 Iteration    1 A*A^-1 deviation from orthogonality  is 2.34D-15 for   2201   2036.
 Iteration    1 A^-1*A deviation from unit magnitude is 4.44D-15 for   2178.
 Iteration    1 A^-1*A deviation from orthogonality  is 2.13D-15 for   2190   1960.
 E= -1028.38134595197    
 DIIS: error= 3.25D-02 at cycle   1 NSaved=   1.
 NSaved= 1 IEnMin= 1 EnMin= -1028.38134595197     IErMin= 1 ErrMin= 3.25D-02
 ErrMax= 3.25D-02  0.00D+00 EMaxC= 1.00D-01 BMatC= 3.75D-01 BMatP= 3.75D-01
 IDIUse=3 WtCom= 6.75D-01 WtEn= 3.25D-01
 Coeff-Com:  0.100D+01
 Coeff-En:   0.100D+01
 Coeff:      0.100D+01
 Gap=     0.369 Goal=   None    Shift=    0.000
 GapD=    0.369 DampG=1.000 DampE=0.500 DampFc=0.5000 IDamp=-1.
 Damping current iteration by 5.00D-01
 RMSDP=3.44D-03 MaxDP=2.29D-01              OVMax= 1.79D-01

 Cycle   2  Pass 1  IDiag  1:
 RMSU=  1.71D-03    CP:  9.94D-01
 E= -1028.49203120255     Delta-E=       -0.110685250573 Rises=F Damp=T
 DIIS: error= 1.09D-02 at cycle   2 NSaved=   2.
 NSaved= 2 IEnMin= 2 EnMin= -1028.49203120255     IErMin= 2 ErrMin= 1.09D-02
 ErrMax= 1.09D-02  0.00D+00 EMaxC= 1.00D-01 BMatC= 5.72D-02 BMatP= 3.75D-01
 IDIUse=3 WtCom= 8.91D-01 WtEn= 1.09D-01
 Coeff-Com: -0.323D+00 0.132D+01
 Coeff-En:   0.000D+00 0.100D+01
 Coeff:     -0.288D+00 0.129D+01
 Gap=     0.298 Goal=   None    Shift=    0.000
 RMSDP=1.16D-03 MaxDP=2.23D-02 DE=-1.11D-01 OVMax= 1.35D-01

 Cycle   3  Pass 1  IDiag  1:
 RMSU=  1.10D-03    CP:  9.90D-01  1.19D+00
 E= -1028.58797167865     Delta-E=       -0.095940476107 Rises=F Damp=F
 DIIS: error= 6.85D-03 at cycle   3 NSaved=   3.
 NSaved= 3 IEnMin= 3 EnMin= -1028.58797167865     IErMin= 3 ErrMin= 6.85D-03
 ErrMax= 6.85D-03  0.00D+00 EMaxC= 1.00D-01 BMatC= 1.33D-02 BMatP= 5.72D-02
 IDIUse=3 WtCom= 9.31D-01 WtEn= 6.85D-02
 Coeff-Com: -0.212D+00 0.502D+00 0.709D+00
 Coeff-En:   0.000D+00 0.000D+00 0.100D+01
 Coeff:     -0.197D+00 0.468D+00 0.729D+00
 Gap=     0.262 Goal=   None    Shift=    0.000
 RMSDP=5.22D-04 MaxDP=2.27D-02 DE=-9.59D-02 OVMax= 4.29D-02

 Cycle   4  Pass 1  IDiag  1:
 RMSU=  3.79D-04    CP:  9.89D-01  1.37D+00  8.24D-01
 E= -1028.60066989968     Delta-E=       -0.012698221029 Rises=F Damp=F
 DIIS: error= 2.57D-03 at cycle   4 NSaved=   4.
 NSaved= 4 IEnMin= 4 EnMin= -1028.60066989968     IErMin= 4 ErrMin= 2.57D-03
 ErrMax= 2.57D-03  0.00D+00 EMaxC= 1.00D-01 BMatC= 2.12D-03 BMatP= 1.33D-02
 IDIUse=3 WtCom= 9.74D-01 WtEn= 2.57D-02
 Coeff-Com: -0.834D-01 0.167D+00 0.374D+00 0.542D+00
 Coeff-En:   0.000D+00 0.000D+00 0.929D-02 0.991D+00
 Coeff:     -0.812D-01 0.163D+00 0.365D+00 0.554D+00
 Gap=     0.260 Goal=   None    Shift=    0.000
 RMSDP=1.71D-04 MaxDP=1.03D-02 DE=-1.27D-02 OVMax= 1.29D-02

 Cycle   5  Pass 1  IDiag  1:
 RMSU=  1.08D-04    CP:  9.89D-01  1.37D+00  9.02D-01  7.35D-01
 E= -1028.60282633518     Delta-E=       -0.002156435497 Rises=F Damp=F
 DIIS: error= 5.13D-04 at cycle   5 NSaved=   5.
 NSaved= 5 IEnMin= 5 EnMin= -1028.60282633518     IErMin= 5 ErrMin= 5.13D-04
 ErrMax= 5.13D-04  0.00D+00 EMaxC= 1.00D-01 BMatC= 7.86D-05 BMatP= 2.12D-03
 IDIUse=3 WtCom= 9.95D-01 WtEn= 5.13D-03
 Coeff-Com: -0.776D-02 0.965D-02 0.600D-01 0.195D+00 0.743D+00
 Coeff-En:   0.000D+00 0.000D+00 0.000D+00 0.000D+00 0.100D+01
 Coeff:     -0.772D-02 0.960D-02 0.597D-01 0.194D+00 0.744D+00
 Gap=     0.261 Goal=   None    Shift=    0.000
 RMSDP=4.97D-05 MaxDP=1.59D-03 DE=-2.16D-03 OVMax= 5.07D-03

 Cycle   6  Pass 1  IDiag  1:
 RMSU=  3.50D-05    CP:  9.89D-01  1.38D+00  9.16D-01  8.14D-01  1.03D+00
 E= -1028.60295442576     Delta-E=       -0.000128090578 Rises=F Damp=F
 DIIS: error= 1.67D-04 at cycle   6 NSaved=   6.
 NSaved= 6 IEnMin= 6 EnMin= -1028.60295442576     IErMin= 6 ErrMin= 1.67D-04
 ErrMax= 1.67D-04  0.00D+00 EMaxC= 1.00D-01 BMatC= 1.02D-05 BMatP= 7.86D-05
 IDIUse=3 WtCom= 9.98D-01 WtEn= 1.67D-03
 Coeff-Com:  0.154D-01-0.321D-01-0.564D-01-0.452D-01 0.205D+00 0.914D+00
 Coeff-En:   0.000D+00 0.000D+00 0.000D+00 0.000D+00 0.000D+00 0.100D+01
 Coeff:      0.154D-01-0.321D-01-0.563D-01-0.451D-01 0.204D+00 0.914D+00
 Gap=     0.262 Goal=   None    Shift=    0.000
 RMSDP=3.34D-05 MaxDP=1.57D-03 DE=-1.28D-04 OVMax= 3.09D-03

 Cycle   7  Pass 1  IDiag  1:
 RMSU=  1.78D-05    CP:  9.89D-01  1.38D+00  9.29D-01  8.54D-01  1.20D+00
                    CP:  1.21D+00
 E= -1028.60298497464     Delta-E=       -0.000030548880 Rises=F Damp=F
 DIIS: error= 1.29D-04 at cycle   7 NSaved=   7.
 NSaved= 7 IEnMin= 7 EnMin= -1028.60298497464     IErMin= 7 ErrMin= 1.29D-04
 ErrMax= 1.29D-04  0.00D+00 EMaxC= 1.00D-01 BMatC= 2.16D-06 BMatP= 1.02D-05
 IDIUse=3 WtCom= 9.99D-01 WtEn= 1.29D-03
 Coeff-Com:  0.726D-02-0.140D-01-0.307D-01-0.460D-01-0.308D-01 0.373D+00
 Coeff-Com:  0.741D+00
 Coeff-En:   0.000D+00 0.000D+00 0.000D+00 0.000D+00 0.000D+00 0.000D+00
 Coeff-En:   0.100D+01
 Coeff:      0.725D-02-0.140D-01-0.307D-01-0.460D-01-0.308D-01 0.372D+00
 Coeff:      0.742D+00
 Gap=     0.262 Goal=   None    Shift=    0.000
 RMSDP=1.13D-05 MaxDP=5.77D-04 DE=-3.05D-05 OVMax= 1.39D-03

 Cycle   8  Pass 1  IDiag  1:
 RMSU=  7.27D-06    CP:  9.89D-01  1.38D+00  9.31D-01  8.60D-01  1.24D+00
                    CP:  1.40D+00  1.06D+00
 E= -1028.60298986728     Delta-E=       -0.000004892648 Rises=F Damp=F
 DIIS: error= 3.58D-05 at cycle   8 NSaved=   8.
 NSaved= 8 IEnMin= 8 EnMin= -1028.60298986728     IErMin= 8 ErrMin= 3.58D-05
 ErrMax= 3.58D-05  0.00D+00 EMaxC= 1.00D-01 BMatC= 2.57D-07 BMatP= 2.16D-06
 IDIUse=1 WtCom= 1.00D+00 WtEn= 0.00D+00
 Coeff-Com: -0.829D-03 0.198D-02 0.188D-02-0.342D-02-0.388D-01-0.489D-01
 Coeff-Com:  0.218D+00 0.870D+00
 Coeff:     -0.829D-03 0.198D-02 0.188D-02-0.342D-02-0.388D-01-0.489D-01
 Coeff:      0.218D+00 0.870D+00
 Gap=     0.262 Goal=   None    Shift=    0.000
 RMSDP=4.76D-06 MaxDP=1.39D-04 DE=-4.89D-06 OVMax= 6.33D-04

 Cycle   9  Pass 1  IDiag  1:
 RMSU=  2.28D-06    CP:  9.89D-01  1.38D+00  9.31D-01  8.61D-01  1.24D+00
                    CP:  1.47D+00  1.25D+00  1.10D+00
 E= -1028.60299059443     Delta-E=       -0.000000727144 Rises=F Damp=F
 DIIS: error= 1.70D-05 at cycle   9 NSaved=   9.
 NSaved= 9 IEnMin= 9 EnMin= -1028.60299059443     IErMin= 9 ErrMin= 1.70D-05
 ErrMax= 1.70D-05  0.00D+00 EMaxC= 1.00D-01 BMatC= 4.70D-08 BMatP= 2.57D-07
 IDIUse=1 WtCom= 1.00D+00 WtEn= 0.00D+00
 Coeff-Com: -0.120D-02 0.242D-02 0.453D-02 0.507D-02-0.958D-02-0.682D-01
 Coeff-Com: -0.180D-01 0.316D+00 0.769D+00
 Coeff:     -0.120D-02 0.242D-02 0.453D-02 0.507D-02-0.958D-02-0.682D-01
 Coeff:     -0.180D-01 0.316D+00 0.769D+00
 Gap=     0.262 Goal=   None    Shift=    0.000
 RMSDP=1.86D-06 MaxDP=5.98D-05 DE=-7.27D-07 OVMax= 1.66D-04

 Cycle  10  Pass 1  IDiag  1:
 RMSU=  9.54D-07    CP:  9.89D-01  1.38D+00  9.30D-01  8.60D-01  1.25D+00
                    CP:  1.49D+00  1.29D+00  1.25D+00  1.09D+00
 E= -1028.60299071182     Delta-E=       -0.000000117396 Rises=F Damp=F
 DIIS: error= 7.10D-06 at cycle  10 NSaved=  10.
 NSaved=10 IEnMin=10 EnMin= -1028.60299071182     IErMin=10 ErrMin= 7.10D-06
 ErrMax= 7.10D-06  0.00D+00 EMaxC= 1.00D-01 BMatC= 6.57D-09 BMatP= 4.70D-08
 IDIUse=1 WtCom= 1.00D+00 WtEn= 0.00D+00
 Coeff-Com: -0.270D-03 0.503D-03 0.123D-02 0.245D-02 0.280D-02-0.190D-01
 Coeff-Com: -0.427D-01-0.271D-01 0.229D+00 0.853D+00
 Coeff:     -0.270D-03 0.503D-03 0.123D-02 0.245D-02 0.280D-02-0.190D-01
 Coeff:     -0.427D-01-0.271D-01 0.229D+00 0.853D+00
 Gap=     0.262 Goal=   None    Shift=    0.000
 RMSDP=9.15D-07 MaxDP=2.85D-05 DE=-1.17D-07 OVMax= 1.32D-04

 Cycle  11  Pass 1  IDiag  1:
 RMSU=  4.42D-07    CP:  9.89D-01  1.38D+00  9.30D-01  8.60D-01  1.25D+00
                    CP:  1.50D+00  1.31D+00  1.30D+00  1.29D+00  1.15D+00
 E= -1028.60299073745     Delta-E=       -0.000000025625 Rises=F Damp=F
 DIIS: error= 2.80D-06 at cycle  11 NSaved=  11.
 NSaved=11 IEnMin=11 EnMin= -1028.60299073745     IErMin=11 ErrMin= 2.80D-06
 ErrMax= 2.80D-06  0.00D+00 EMaxC= 1.00D-01 BMatC= 1.76D-09 BMatP= 6.57D-09
 IDIUse=1 WtCom= 1.00D+00 WtEn= 0.00D+00
 Coeff-Com:  0.135D-03-0.283D-03-0.440D-03-0.405D-04 0.267D-02 0.430D-02
 Coeff-Com: -0.920D-02-0.516D-01-0.688D-01 0.320D+00 0.803D+00
 Coeff:      0.135D-03-0.283D-03-0.440D-03-0.405D-04 0.267D-02 0.430D-02
 Coeff:     -0.920D-02-0.516D-01-0.688D-01 0.320D+00 0.803D+00
 Gap=     0.262 Goal=   None    Shift=    0.000
 RMSDP=3.71D-07 MaxDP=7.61D-06 DE=-2.56D-08 OVMax= 5.42D-05

 Cycle  12  Pass 1  IDiag  1:
 RMSU=  1.71D-07    CP:  9.89D-01  1.38D+00  9.30D-01  8.60D-01  1.25D+00
                    CP:  1.50D+00  1.32D+00  1.32D+00  1.36D+00  1.39D+00
                    CP:  1.10D+00
 E= -1028.60299074293     Delta-E=       -0.000000005484 Rises=F Damp=F
 DIIS: error= 1.09D-06 at cycle  12 NSaved=  12.
 NSaved=12 IEnMin=12 EnMin= -1028.60299074293     IErMin=12 ErrMin= 1.09D-06
 ErrMax= 1.09D-06  0.00D+00 EMaxC= 1.00D-01 BMatC= 2.97D-10 BMatP= 1.76D-09
 IDIUse=1 WtCom= 1.00D+00 WtEn= 0.00D+00
 Coeff-Com:  0.111D-03-0.218D-03-0.460D-03-0.591D-03 0.374D-03 0.599D-02
 Coeff-Com:  0.724D-02-0.981D-02-0.956D-01-0.958D-01 0.219D+00 0.970D+00
 Coeff:      0.111D-03-0.218D-03-0.460D-03-0.591D-03 0.374D-03 0.599D-02
 Coeff:      0.724D-02-0.981D-02-0.956D-01-0.958D-01 0.219D+00 0.970D+00
 Gap=     0.262 Goal=   None    Shift=    0.000
 RMSDP=2.33D-07 MaxDP=5.25D-06 DE=-5.48D-09 OVMax= 3.55D-05

 Cycle  13  Pass 1  IDiag  1:
 RMSU=  7.23D-08    CP:  9.89D-01  1.38D+00  9.30D-01  8.60D-01  1.25D+00
                    CP:  1.50D+00  1.32D+00  1.33D+00  1.40D+00  1.52D+00
                    CP:  1.39D+00  1.26D+00
 E= -1028.60299074436     Delta-E=       -0.000000001424 Rises=F Damp=F
 DIIS: error= 4.80D-07 at cycle  13 NSaved=  13.
 NSaved=13 IEnMin=13 EnMin= -1028.60299074436     IErMin=13 ErrMin= 4.80D-07
 ErrMax= 4.80D-07  0.00D+00 EMaxC= 1.00D-01 BMatC= 3.34D-11 BMatP= 2.97D-10
 IDIUse=1 WtCom= 1.00D+00 WtEn= 0.00D+00
 Coeff-Com:  0.146D-05-0.662D-06-0.275D-04-0.104D-03-0.215D-03 0.713D-03
 Coeff-Com:  0.289D-02 0.684D-02-0.114D-01-0.606D-01-0.904D-01 0.208D+00
 Coeff-Com:  0.944D+00
 Coeff:      0.146D-05-0.662D-06-0.275D-04-0.104D-03-0.215D-03 0.713D-03
 Coeff:      0.289D-02 0.684D-02-0.114D-01-0.606D-01-0.904D-01 0.208D+00
 Coeff:      0.944D+00
 Gap=     0.262 Goal=   None    Shift=    0.000
 RMSDP=7.13D-08 MaxDP=1.71D-06 DE=-1.42D-09 OVMax= 9.69D-06

 Cycle  14  Pass 1  IDiag  1:
 RMSU=  2.70D-08    CP:  9.89D-01  1.38D+00  9.30D-01  8.60D-01  1.25D+00
                    CP:  1.50D+00  1.32D+00  1.33D+00  1.41D+00  1.55D+00
                    CP:  1.46D+00  1.48D+00  1.21D+00
 E= -1028.60299074450     Delta-E=       -0.000000000146 Rises=F Damp=F
 DIIS: error= 1.35D-07 at cycle  14 NSaved=  14.
 NSaved=14 IEnMin=14 EnMin= -1028.60299074450     IErMin=14 ErrMin= 1.35D-07
 ErrMax= 1.35D-07  0.00D+00 EMaxC= 1.00D-01 BMatC= 5.49D-12 BMatP= 3.34D-11
 IDIUse=1 WtCom= 1.00D+00 WtEn= 0.00D+00
 Coeff-Com: -0.115D-04 0.234D-04 0.403D-04 0.263D-04-0.119D-03-0.400D-03
 Coeff-Com:  0.160D-03 0.347D-02 0.562D-02-0.936D-02-0.564D-01-0.320D-01
 Coeff-Com:  0.345D+00 0.744D+00
 Coeff:     -0.115D-04 0.234D-04 0.403D-04 0.263D-04-0.119D-03-0.400D-03
 Coeff:      0.160D-03 0.347D-02 0.562D-02-0.936D-02-0.564D-01-0.320D-01
 Coeff:      0.345D+00 0.744D+00
 Gap=     0.262 Goal=   None    Shift=    0.000
 RMSDP=1.77D-08 MaxDP=4.07D-07 DE=-1.46D-10 OVMax= 2.46D-06

 Cycle  15  Pass 1  IDiag  1:
 RMSU=  9.07D-09    CP:  9.89D-01  1.38D+00  9.30D-01  8.60D-01  1.25D+00
                    CP:  1.50D+00  1.32D+00  1.33D+00  1.41D+00  1.56D+00
                    CP:  1.48D+00  1.53D+00  1.35D+00  1.07D+00
 E= -1028.60299074452     Delta-E=       -0.000000000011 Rises=F Damp=F
 DIIS: error= 5.23D-08 at cycle  15 NSaved=  15.
 NSaved=15 IEnMin=15 EnMin= -1028.60299074452     IErMin=15 ErrMin= 5.23D-08
 ErrMax= 5.23D-08  0.00D+00 EMaxC= 1.00D-01 BMatC= 4.87D-13 BMatP= 5.49D-12
 IDIUse=1 WtCom= 1.00D+00 WtEn= 0.00D+00
 Coeff-Com: -0.256D-05 0.479D-05 0.136D-04 0.242D-04 0.252D-05-0.223D-03
 Coeff-Com: -0.492D-03-0.281D-03 0.312D-02 0.859D-02 0.181D-02-0.433D-01
 Coeff-Com: -0.746D-01 0.130D+00 0.975D+00
 Coeff:     -0.256D-05 0.479D-05 0.136D-04 0.242D-04 0.252D-05-0.223D-03
 Coeff:     -0.492D-03-0.281D-03 0.312D-02 0.859D-02 0.181D-02-0.433D-01
 Coeff:     -0.746D-01 0.130D+00 0.975D+00
 Gap=     0.262 Goal=   None    Shift=    0.000
 RMSDP=8.16D-09 MaxDP=1.72D-07 DE=-1.07D-11 OVMax= 8.29D-07

 Error on total polarization charges =  0.00813
 SCF Done:  E(RwB97XD) =  -1028.60299074     A.U. after   15 cycles
            NFock= 15  Conv=0.82D-08     -V/T= 2.0038
 KE= 1.024686566861D+03 PE=-4.604551775715D+03 EE= 1.455177373042D+03
 Leave Link  502 at Tue Oct 27 20:57:35 2020, MaxMem=  7784628224 cpu:             822.6 elap:              83.0
 (Enter /gpfs/loomis/apps/avx/software/Gaussian/16-C.01_AVX/g16/l601.exe)
 Copying SCF densities to generalized density rwf, IOpCl= 0 IROHF=0.

 **********************************************************************

            Population analysis using the SCF Density.

 **********************************************************************

 Alpha  occ. eigenvalues --  -89.08877 -19.27047 -14.45612 -10.39330 -10.38705
 Alpha  occ. eigenvalues --  -10.34563 -10.34282 -10.33447 -10.32589 -10.32275
 Alpha  occ. eigenvalues --  -10.32104 -10.31367 -10.31232 -10.31139 -10.30953
 Alpha  occ. eigenvalues --  -10.30917  -8.10747  -6.05602  -6.05262  -6.04812
 Alpha  occ. eigenvalues --   -1.26598  -1.08043  -0.97121  -0.95523  -0.91228
 Alpha  occ. eigenvalues --   -0.88826  -0.86810  -0.84194  -0.82806  -0.77332
 Alpha  occ. eigenvalues --   -0.73103  -0.70275  -0.69474  -0.68574  -0.64694
 Alpha  occ. eigenvalues --   -0.60178  -0.59438  -0.58311  -0.56239  -0.54750
 Alpha  occ. eigenvalues --   -0.53861  -0.53454  -0.52572  -0.51097  -0.51056
 Alpha  occ. eigenvalues --   -0.49406  -0.48502  -0.46019  -0.45624  -0.44961
 Alpha  occ. eigenvalues --   -0.43545  -0.43247  -0.42164  -0.39575  -0.36872
 Alpha  occ. eigenvalues --   -0.36464  -0.32294  -0.31632  -0.28103
 Alpha virt. eigenvalues --   -0.01901   0.05373   0.06567   0.07138   0.07731
 Alpha virt. eigenvalues --    0.11495   0.13168   0.15163   0.15906   0.18089
 Alpha virt. eigenvalues --    0.18557   0.21207   0.21794   0.22238   0.22930
 Alpha virt. eigenvalues --    0.23237   0.23683   0.25235   0.27988   0.30825
 Alpha virt. eigenvalues --    0.31959   0.33530   0.35159   0.36252   0.36796
 Alpha virt. eigenvalues --    0.37866   0.38437   0.40795   0.44112   0.46262
 Alpha virt. eigenvalues --    0.46808   0.48439   0.50816   0.51261   0.51873
 Alpha virt. eigenvalues --    0.52289   0.53625   0.54661   0.54824   0.55841
 Alpha virt. eigenvalues --    0.55939   0.56331   0.57336   0.58055   0.58098
 Alpha virt. eigenvalues --    0.58691   0.58996   0.59513   0.59853   0.60051
 Alpha virt. eigenvalues --    0.60789   0.60944   0.62050   0.62558   0.64150
 Alpha virt. eigenvalues --    0.65061   0.65964   0.66513   0.68675   0.69019
 Alpha virt. eigenvalues --    0.70234   0.71913   0.72413   0.72885   0.73175
 Alpha virt. eigenvalues --    0.74014   0.75571   0.76200   0.77005   0.78672
 Alpha virt. eigenvalues --    0.79430   0.79542   0.81134   0.82469   0.82677
 Alpha virt. eigenvalues --    0.83825   0.88337   0.91716   0.93264   0.93602
 Alpha virt. eigenvalues --    0.94995   0.95019   0.96046   0.96723   0.97763
 Alpha virt. eigenvalues --    0.98722   0.99004   1.00470   1.01002   1.02104
 Alpha virt. eigenvalues --    1.03134   1.04635   1.05849   1.07361   1.07714
 Alpha virt. eigenvalues --    1.07885   1.08949   1.09376   1.10483   1.10904
 Alpha virt. eigenvalues --    1.12010   1.13148   1.13204   1.15508   1.15738
 Alpha virt. eigenvalues --    1.17008   1.18495   1.20733   1.22011   1.24316
 Alpha virt. eigenvalues --    1.25448   1.28547   1.33380   1.34416   1.34586
 Alpha virt. eigenvalues --    1.35260   1.36527   1.38634   1.42785   1.44416
 Alpha virt. eigenvalues --    1.47844   1.48759   1.51993   1.53495   1.54624
 Alpha virt. eigenvalues --    1.55331   1.56084   1.57129   1.57456   1.58249
 Alpha virt. eigenvalues --    1.59279   1.59974   1.62263   1.66065   1.66316
 Alpha virt. eigenvalues --    1.68000   1.68077   1.70224   1.70698   1.70842
 Alpha virt. eigenvalues --    1.71630   1.72596   1.72697   1.73955   1.74510
 Alpha virt. eigenvalues --    1.76559   1.77521   1.79989   1.81130   1.82124
 Alpha virt. eigenvalues --    1.82840   1.83431   1.84673   1.85905   1.86051
 Alpha virt. eigenvalues --    1.86572   1.88186   1.89040   1.90538   1.91957
 Alpha virt. eigenvalues --    1.92442   1.92941   1.93677   1.94175   1.94850
 Alpha virt. eigenvalues --    2.00546   2.00624   2.02029   2.03668   2.04259
 Alpha virt. eigenvalues --    2.07621   2.08322   2.09238   2.10994   2.11785
 Alpha virt. eigenvalues --    2.16762   2.17755   2.20677   2.24699   2.26049
 Alpha virt. eigenvalues --    2.26215   2.28744   2.36503   2.38491   2.41714
 Alpha virt. eigenvalues --    2.41739   2.44271   2.47222   2.47632   2.48680
 Alpha virt. eigenvalues --    2.49818   2.50783   2.54031   2.61055   2.62350
 Alpha virt. eigenvalues --    2.66751   2.72577   2.74488   2.78323   2.81298
 Alpha virt. eigenvalues --    2.82141   2.84015   2.89096   2.91371   2.99524
 Alpha virt. eigenvalues --    3.03613   3.10660   3.30310   3.36752   3.37171
 Alpha virt. eigenvalues --    3.55713   3.56779   3.72603   4.69248
          Condensed to atoms (all electrons):
               1          2          3          4          5          6
     1  C    4.764287   0.438928   0.011232  -0.053039  -0.013020   0.526476
     2  C    0.438928   5.344031   0.340485  -0.039044  -0.062475  -0.008700
     3  C    0.011232   0.340485   4.733945   0.490711  -0.007626  -0.064047
     4  C   -0.053039  -0.039044   0.490711   4.783603   0.526167  -0.015302
     5  C   -0.013020  -0.062475  -0.007626   0.526167   4.735281   0.486118
     6  C    0.526476  -0.008700  -0.064047  -0.015302   0.486118   4.752749
     7  H    0.401145  -0.039215   0.007896  -0.000420   0.007970  -0.038359
     8  H   -0.001108   0.012119  -0.029451   0.391140  -0.044996   0.007988
     9  H    0.008736  -0.000757   0.008667  -0.039782   0.405100  -0.045257
    10  H   -0.041838   0.009776  -0.000688   0.008777  -0.044055   0.405262
    11  N    0.009223  -0.064633   0.522364  -0.042339   0.003093  -0.000002
    12  S   -0.062066   0.347665  -0.098964   0.007043   0.000183   0.003333
    13  C   -0.000139   0.004169   0.007836  -0.000852   0.000010   0.000001
    14  C   -0.000005  -0.000042   0.000334   0.000006  -0.000000  -0.000000
    15  C    0.000005   0.000024  -0.001300   0.000020  -0.000001   0.000000
    16  C    0.000000  -0.000000   0.000004  -0.000000   0.000000   0.000000
    17  H   -0.000001   0.000032  -0.000008  -0.000000   0.000000  -0.000000
    18  C    0.000000   0.000006  -0.000037   0.000000  -0.000000   0.000000
    19  C   -0.000000   0.000000   0.000003  -0.000000   0.000000   0.000000
    20  H   -0.000000  -0.000000  -0.000000   0.000000   0.000000  -0.000000
    21  H   -0.000000  -0.000000   0.000001   0.000000   0.000000  -0.000000
    22  H   -0.000000  -0.000000   0.000000  -0.000000   0.000000   0.000000
    23  C    0.004868  -0.058021  -0.135734   0.000690   0.000215  -0.000176
    24  O    0.000001  -0.000045  -0.001009  -0.000005  -0.000000  -0.000000
    25  H   -0.000061   0.001563  -0.002255  -0.000894   0.000016   0.000009
               7          8          9         10         11         12
     1  C    0.401145  -0.001108   0.008736  -0.041838   0.009223  -0.062066
     2  C   -0.039215   0.012119  -0.000757   0.009776  -0.064633   0.347665
     3  C    0.007896  -0.029451   0.008667  -0.000688   0.522364  -0.098964
     4  C   -0.000420   0.391140  -0.039782   0.008777  -0.042339   0.007043
     5  C    0.007970  -0.044996   0.405100  -0.044055   0.003093   0.000183
     6  C   -0.038359   0.007988  -0.045257   0.405262  -0.000002   0.003333
     7  H    0.660704   0.000035  -0.000142  -0.012145  -0.000132  -0.006123
     8  H    0.000035   0.660583  -0.012236  -0.000129  -0.000665  -0.000096
     9  H   -0.000142  -0.012236   0.669676  -0.012223  -0.000113   0.000020
    10  H   -0.012145  -0.000129  -0.012223   0.666626  -0.000003  -0.000134
    11  N   -0.000132  -0.000665  -0.000113  -0.000003   6.425779  -0.081148
    12  S   -0.006123  -0.000096   0.000020  -0.000134  -0.081148  15.493224
    13  C    0.000006   0.000047  -0.000000  -0.000000  -0.019008  -0.060845
    14  C    0.000000   0.000001   0.000000  -0.000000   0.003435  -0.004149
    15  C   -0.000000  -0.000062   0.000000   0.000000  -0.023370   0.004337
    16  C   -0.000000  -0.000000  -0.000000   0.000000  -0.000098  -0.000114
    17  H    0.000001   0.000000  -0.000000  -0.000000   0.000178   0.005414
    18  C   -0.000000   0.000001  -0.000000  -0.000000  -0.000109  -0.000061
    19  C    0.000000   0.000000  -0.000000  -0.000000   0.000058   0.000013
    20  H   -0.000000  -0.000000   0.000000   0.000000   0.000001  -0.000002
    21  H   -0.000000  -0.000000   0.000000   0.000000  -0.000009   0.000002
    22  H    0.000000   0.000000  -0.000000  -0.000000   0.000000  -0.000000
    23  C    0.000023  -0.001045   0.000009   0.000002   0.552147   0.304941
    24  O   -0.000000  -0.000175   0.000000  -0.000000  -0.031086  -0.000111
    25  H    0.000001   0.001358  -0.000004   0.000000   0.055705   0.002294
              13         14         15         16         17         18
     1  C   -0.000139  -0.000005   0.000005   0.000000  -0.000001   0.000000
     2  C    0.004169  -0.000042   0.000024  -0.000000   0.000032   0.000006
     3  C    0.007836   0.000334  -0.001300   0.000004  -0.000008  -0.000037
     4  C   -0.000852   0.000006   0.000020  -0.000000  -0.000000   0.000000
     5  C    0.000010  -0.000000  -0.000001   0.000000   0.000000  -0.000000
     6  C    0.000001  -0.000000   0.000000   0.000000  -0.000000   0.000000
     7  H    0.000006   0.000000  -0.000000  -0.000000   0.000001  -0.000000
     8  H    0.000047   0.000001  -0.000062  -0.000000   0.000000   0.000001
     9  H   -0.000000   0.000000   0.000000  -0.000000  -0.000000  -0.000000
    10  H   -0.000000  -0.000000   0.000000   0.000000  -0.000000  -0.000000
    11  N   -0.019008   0.003435  -0.023370  -0.000098   0.000178  -0.000109
    12  S   -0.060845  -0.004149   0.004337  -0.000114   0.005414  -0.000061
    13  C    5.339347   0.502434   0.270184  -0.010465  -0.037945  -0.078970
    14  C    0.502434   4.783970  -0.017407   0.527023   0.403986  -0.052304
    15  C    0.270184  -0.017407   4.900634  -0.065579   0.008423   0.491953
    16  C   -0.010465   0.527023  -0.065579   4.751028  -0.037759  -0.015175
    17  H   -0.037945   0.403986   0.008423  -0.037759   0.670408  -0.000803
    18  C   -0.078970  -0.052304   0.491953  -0.015175  -0.000803   4.827993
    19  C   -0.042771  -0.016381  -0.007076   0.486517   0.008442   0.499076
    20  H    0.008611  -0.035550  -0.000371   0.402164  -0.012999   0.008485
    21  H    0.010824  -0.000387  -0.024410   0.007095   0.000037   0.384284
    22  H   -0.000807   0.008641   0.009039  -0.042744  -0.000138  -0.041730
    23  C    0.289128  -0.089453  -0.065716   0.007782  -0.019768   0.007556
    24  O   -0.062205   0.003355   0.479569   0.000031  -0.000053  -0.061853
    25  H   -0.054137  -0.001175   0.008679  -0.000054   0.000043   0.011292
              19         20         21         22         23         24
     1  C   -0.000000  -0.000000  -0.000000  -0.000000   0.004868   0.000001
     2  C    0.000000  -0.000000  -0.000000  -0.000000  -0.058021  -0.000045
     3  C    0.000003  -0.000000   0.000001   0.000000  -0.135734  -0.001009
     4  C   -0.000000   0.000000   0.000000  -0.000000   0.000690  -0.000005
     5  C    0.000000   0.000000   0.000000   0.000000   0.000215  -0.000000
     6  C    0.000000  -0.000000  -0.000000   0.000000  -0.000176  -0.000000
     7  H    0.000000  -0.000000  -0.000000   0.000000   0.000023  -0.000000
     8  H    0.000000  -0.000000  -0.000000   0.000000  -0.001045  -0.000175
     9  H   -0.000000   0.000000   0.000000  -0.000000   0.000009   0.000000
    10  H   -0.000000   0.000000   0.000000  -0.000000   0.000002  -0.000000
    11  N    0.000058   0.000001  -0.000009   0.000000   0.552147  -0.031086
    12  S    0.000013  -0.000002   0.000002  -0.000000   0.304941  -0.000111
    13  C   -0.042771   0.008611   0.010824  -0.000807   0.289128  -0.062205
    14  C   -0.016381  -0.035550  -0.000387   0.008641  -0.089453   0.003355
    15  C   -0.007076  -0.000371  -0.024410   0.009039  -0.065716   0.479569
    16  C    0.486517   0.402164   0.007095  -0.042744   0.007782   0.000031
    17  H    0.008442  -0.012999   0.000037  -0.000138  -0.019768  -0.000053
    18  C    0.499076   0.008485   0.384284  -0.041730   0.007556  -0.061853
    19  C    4.736158  -0.046930  -0.043065   0.407449   0.000249   0.002863
    20  H   -0.046930   0.672536  -0.000157  -0.011581  -0.000302   0.000003
    21  H   -0.043065  -0.000157   0.650913  -0.011540  -0.000397   0.001534
    22  H    0.407449  -0.011581  -0.011540   0.657615   0.000003  -0.000056
    23  C    0.000249  -0.000302  -0.000397   0.000003   5.137206  -0.002766
    24  O    0.002863   0.000003   0.001534  -0.000056  -0.002766   7.082429
    25  H   -0.000088  -0.000001   0.000306   0.000004   0.006475   0.445935
              25
     1  C   -0.000061
     2  C    0.001563
     3  C   -0.002255
     4  C   -0.000894
     5  C    0.000016
     6  C    0.000009
     7  H    0.000001
     8  H    0.001358
     9  H   -0.000004
    10  H    0.000000
    11  N    0.055705
    12  S    0.002294
    13  C   -0.054137
    14  C   -0.001175
    15  C    0.008679
    16  C   -0.000054
    17  H    0.000043
    18  C    0.011292
    19  C   -0.000088
    20  H   -0.000001
    21  H    0.000306
    22  H    0.000004
    23  C    0.006475
    24  O    0.445935
    25  H    0.678203
 Mulliken charges:
               1
     1  C    0.006377
     2  C   -0.225866
     3  C    0.217643
     4  C   -0.016479
     5  C    0.008019
     6  C   -0.010091
     7  H    0.018757
     8  H    0.016691
     9  H    0.018306
    10  H    0.020773
    11  N   -0.309268
    12  S    0.145343
    13  C   -0.064453
    14  C   -0.016332
    15  C    0.032425
    16  C   -0.009656
    17  H    0.012512
    18  C    0.020396
    19  C    0.015483
    20  H    0.016093
    21  H    0.024969
    22  H    0.025843
    23  C    0.062085
    24  O    0.143644
    25  H   -0.153213
 Sum of Mulliken charges =  -0.00000
 Mulliken charges with hydrogens summed into heavy atoms:
               1
     1  C    0.025134
     2  C   -0.225866
     3  C    0.217643
     4  C    0.000211
     5  C    0.026325
     6  C    0.010682
    11  N   -0.309268
    12  S    0.145343
    13  C   -0.064453
    14  C   -0.003820
    15  C    0.032425
    16  C    0.006436
    18  C    0.045365
    19  C    0.041327
    23  C    0.062085
    24  O   -0.009570
 Electronic spatial extent (au):  <R**2>=           4364.5969
 Charge=             -0.0000 electrons
 Dipole moment (field-independent basis, Debye):
    X=             -0.8598    Y=             -1.1091    Z=              0.0000  Tot=              1.4033
 Quadrupole moment (field-independent basis, Debye-Ang):
   XX=            -82.8213   YY=            -86.7259   ZZ=           -104.2044
   XY=             -7.6262   XZ=             -0.0001   YZ=              0.0003
 Traceless Quadrupole moment (field-independent basis, Debye-Ang):
   XX=              8.4292   YY=              4.5247   ZZ=            -12.9539
   XY=             -7.6262   XZ=             -0.0001   YZ=              0.0003
 Octapole moment (field-independent basis, Debye-Ang**2):
  XXX=              4.4482  YYY=             -2.2848  ZZZ=             -0.0000  XYY=             -8.5542
  XXY=              6.0003  XXZ=              0.0001  XZZ=              0.7658  YZZ=              3.4958
  YYZ=              0.0010  XYZ=             -0.0007
 Hexadecapole moment (field-independent basis, Debye-Ang**3):
 XXXX=          -2600.2690 YYYY=          -2591.4974 ZZZZ=           -113.5961 XXXY=            800.1461
 XXXZ=              0.0096 YYYX=            757.8424 YYYZ=             -0.0101 ZZZX=              0.0129
 ZZZY=             -0.0187 XXYY=           -847.1818 XXZZ=           -572.2020 YYZZ=           -553.1333
 XXYZ=             -0.0026 YYXZ=             -0.0004 ZZXY=            356.1770
 N-N= 1.096084845067D+03 E-N=-4.604551778873D+03  KE= 1.024686566861D+03
 No NMR shielding tensors so no spin-rotation constants.
 Leave Link  601 at Tue Oct 27 20:57:35 2020, MaxMem=  7784628224 cpu:               1.2 elap:               0.2
 (Enter /gpfs/loomis/apps/avx/software/Gaussian/16-C.01_AVX/g16/l701.exe)
 ... and contract with generalized density number  0.
 Compute integral first derivatives.
 R6Disp: Adding Grimme-D2 dispersion energy 1st derivatives to the gradient.
 D1PCM: PCM CHGder 1st derivatives, ID1Alg=3 FixD1E=F DoIter=F DoCFld=F I1PDM=0.
 GePol: Maximum number of non-zero 1st derivatives   =     271
 Leave Link  701 at Tue Oct 27 20:57:36 2020, MaxMem=  7784628224 cpu:              14.1 elap:               1.4
 (Enter /gpfs/loomis/apps/avx/software/Gaussian/16-C.01_AVX/g16/l702.exe)
 L702 exits ... SP integral derivatives will be done elsewhere.
 Leave Link  702 at Tue Oct 27 20:57:36 2020, MaxMem=  7784628224 cpu:               0.2 elap:               0.0
 (Enter /gpfs/loomis/apps/avx/software/Gaussian/16-C.01_AVX/g16/l703.exe)
 Integral derivatives from FoFJK, PRISM(SPDF).
 Compute integral first derivatives, UseDBF=F ICtDFT=           0.
 Calling FoFJK, ICntrl=      2127 FMM=F ISym2X=0 I1Cent= 0 IOpClX= 0 NMat=1 NMatS=1 NMatT=0.
 FoFJK:  IHMeth= 1 ICntrl=    2127 DoSepK=T KAlg= 0 I1Cent=           0 FoldK=F
 IRaf=         1 NMat=       1 IRICut=       1 DoRegI=T DoRafI=F ISym2E= 0 IDoP0=0 IntGTp=1.
 FoFCou: FMM=F IPFlag=           0 FMFlag=      100000 FMFlg1=         800
         NFxFlg=           0 DoJE=F BraDBF=F KetDBF=F FulRan=T
         wScrn=  0.000000 ICntrl=      2527 IOpCl=  0 I1Cent=           0 NGrid=           0
         NMat0=    1 NMatS0=      1 NMatT0=    0 NMatD0=    1 NMtDS0=    0 NMtDT0=    0
 Symmetry not used in FoFCou.
 Leave Link  703 at Tue Oct 27 20:57:50 2020, MaxMem=  7784628224 cpu:             135.7 elap:              13.6
 (Enter /gpfs/loomis/apps/avx/software/Gaussian/16-C.01_AVX/g16/l716.exe)
 Dipole        =-3.38261055D-01-4.36351229D-01 7.00955565D-06
 -------------------------------------------------------------------
 Center     Atomic                   Forces (Hartrees/Bohr)
 Number     Number              X              Y              Z
 -------------------------------------------------------------------
      1        6           0.006458311   -0.005976350    0.000000035
      2        6           0.004693671    0.014726719   -0.000000074
      3        6           0.031388678   -0.049447997   -0.000000173
      4        6          -0.017794243    0.001372383   -0.000000094
      5        6          -0.000493635   -0.009329926   -0.000000023
      6        6          -0.006065667    0.004043072    0.000000022
      7        1           0.000847847    0.001204831   -0.000000035
      8        1          -0.000901703   -0.001720699   -0.000000013
      9        1          -0.001090329   -0.000098375   -0.000000000
     10        1          -0.000948131    0.000799843    0.000000012
     11        7          -0.070138286    0.027887860    0.000000479
     12       16           0.006162463    0.015159134    0.000000099
     13        6          -0.030906351    0.064527004    0.000001024
     14        6           0.024115738   -0.000727002    0.000000655
     15        6          -0.014022800   -0.031817143   -0.000000640
     16        6          -0.004173593    0.014579129    0.000000411
     17        1          -0.001211825   -0.000153348    0.000000074
     18        6          -0.003933458   -0.005012724   -0.000000340
     19        6           0.000580610   -0.022495302   -0.000000831
     20        1           0.001364516   -0.000212129   -0.000000015
     21        1          -0.000402036   -0.001215525    0.000000043
     22        1           0.000060536   -0.000786853   -0.000000100
     23        6           0.067527669   -0.025763736   -0.000000855
     24        8          -0.509459265    0.898314606    0.000014321
     25        1           0.518341284   -0.887857471   -0.000013984
 -------------------------------------------------------------------
 Cartesian Forces:  Max     0.898314606 RMS     0.169177698
 Leave Link  716 at Tue Oct 27 20:57:50 2020, MaxMem=  7784628224 cpu:               0.3 elap:               0.0
 (Enter /gpfs/loomis/apps/avx/software/Gaussian/16-C.01_AVX/g16/l103.exe)

 GradGradGradGradGradGradGradGradGradGradGradGradGradGradGradGradGradGrad
 Berny optimization.
 FormGI is forming the generalized inverse of G from B-inverse, IUseBI=4.
 Internal  Forces:  Max     0.964962003 RMS     0.086907681
 Search for a local minimum.
 Step number   1 out of a maximum of  143
 All quantities printed in internal units (Hartrees-Bohrs-Radians)
 RMS Force = .87568D-01 SwitMx=.10000D-02 MixMth= 1
 Mixed Optimization -- RFO/linear search
 Second derivative matrix not updated -- first step.
 ITU=  0
     Eigenvalues ---    0.01240   0.01352   0.01551   0.01620   0.01710
     Eigenvalues ---    0.01745   0.01909   0.01914   0.01938   0.01970
     Eigenvalues ---    0.01973   0.01985   0.02014   0.02075   0.02076
     Eigenvalues ---    0.02095   0.02129   0.02146   0.02179   0.02195
     Eigenvalues ---    0.02254   0.02680   0.16000   0.16000   0.16000
     Eigenvalues ---    0.16000   0.16000   0.16000   0.16000   0.16003
     Eigenvalues ---    0.16069   0.22000   0.22030   0.22518   0.22580
     Eigenvalues ---    0.24471   0.24555   0.25000   0.25000   0.25000
     Eigenvalues ---    0.25809   0.28785   0.32184   0.34442   0.34460
     Eigenvalues ---    0.34461   0.34487   0.34524   0.34596   0.34619
     Eigenvalues ---    0.34677   0.36886   0.38685   0.39543   0.40621
     Eigenvalues ---    0.42272   0.42552   0.43736   0.44030   0.45668
     Eigenvalues ---    0.46593   0.47499   0.48578   0.50795   0.59747
     Eigenvalues ---    0.60600   2.296741000.000001000.000001000.00000
     Eigenvalues --- 1000.000001000.000001000.000001000.000001000.00000
     Eigenvalues --- 1000.000001000.000001000.000001000.000001000.00000
     Eigenvalues --- 1000.000001000.000001000.000001000.000001000.00000
     Eigenvalues --- 1000.000001000.000001000.000001000.000001000.00000
     Eigenvalues --- 1000.000001000.000001000.000001000.000001000.00000
     Eigenvalues --- 1000.000001000.000001000.000001000.000001000.00000
     Eigenvalues --- 1000.000001000.000001000.000001000.000001000.00000
     Eigenvalues --- 1000.000001000.000001000.000001000.000001000.00000
     Eigenvalues --- 1000.000001000.000001000.000001000.000001000.00000
     Eigenvalues --- 1000.000001000.000001000.000001000.000001000.00000
     Eigenvalues --- 1000.000001000.000001000.000001000.000001000.00000
     Eigenvalues --- 1000.000001000.000001000.000001000.000001000.00000
     Eigenvalues --- 1000.000001000.000001000.00000
 RFO step:  Lambda=-3.82525898D-01 EMin= 1.24017098D-02
 Linear search not attempted -- first point.
 Maximum step size (   0.300) exceeded in Quadratic search.
    -- Step size scaled by   0.769
 Iteration  1 RMS(Cart)=  0.02269424 RMS(Int)=  0.00646662
 Iteration  2 RMS(Cart)=  0.00666546 RMS(Int)=  0.00021876
 Iteration  3 RMS(Cart)=  0.00009965 RMS(Int)=  0.00020308
 Iteration  4 RMS(Cart)=  0.00000014 RMS(Int)=  0.00020317
 Iteration  1 RMS(Cart)=  0.00000080 RMS(Int)=  0.00000018
 ITry= 1 IFail=0 DXMaxC= 2.06D-01 DCOld= 1.00D+10 DXMaxT= 3.00D-01 DXLimC= 3.00D+00 Rises=F
 Variable       Old X    -DE/DX   Delta X   Delta X   Delta X     New X
                                 (Linear)    (Quad)   (Total)
    R1        2.63484   0.02074   0.00000   0.00763   0.00748   2.64232
    R2        2.64497   0.01045   0.00000  -0.00267  -0.00283   2.64214
    R3        2.06560  -0.00094   0.00000  -0.00148  -0.00149   2.06412
    R4        2.70480  -0.01210   0.00000  -0.01604  -0.01608   2.68872
    R5        3.33060   0.01349   0.00000   0.00204   0.00190   3.33250
    R6        2.69905  -0.02916   0.00000  -0.02054  -0.02044   2.67861
    R7        2.48328   0.00542   0.00000   0.02457   0.02489   2.50817
    R8        2.60373  -0.01775   0.00000  -0.00290  -0.00274   2.60100
    R9        2.06591  -0.00155   0.00000  -0.00188  -0.00188   2.06403
   R10        2.67382  -0.00014   0.00000  -0.00482  -0.00489   2.66893
   R11        2.06516  -0.00070   0.00000  -0.00102  -0.00102   2.06414
   R12        2.06455  -0.00124   0.00000  -0.00129  -0.00129   2.06326
   R13        2.56598  -0.07041   0.00000  -0.04679  -0.04661   2.51937
   R14        3.40312   0.06054   0.00000   0.01111   0.01052   3.41364
   R15        2.70552   0.00950   0.00000  -0.00995  -0.01019   2.69533
   R16        2.80050   0.05214   0.00000  -0.01213  -0.01286   2.78764
   R17        2.67054   0.08533   0.00000   0.04217   0.04171   2.71225
   R18        2.61661  -0.00071   0.00000  -0.00006  -0.00005   2.61656
   R19        2.06298   0.00059   0.00000   0.00060   0.00060   2.06358
   R20        2.64591  -0.02542   0.00000  -0.00901  -0.00883   2.63708
   R21        2.50451   0.02603   0.00000   0.01084   0.01066   2.51517
   R22        2.68991  -0.02114   0.00000  -0.02048  -0.02047   2.66943
   R23        2.06558  -0.00175   0.00000  -0.00152  -0.00152   2.06407
   R24        2.62234  -0.03455   0.00000  -0.01034  -0.01006   2.61228
   R25        2.06336  -0.00063   0.00000  -0.00112  -0.00112   2.06224
   R26        2.06202  -0.00077   0.00000  -0.00065  -0.00065   2.06137
   R27        1.24491   0.96496   0.00000   0.27708   0.27765   1.52256
    A1        2.07217  -0.00854   0.00000  -0.00459  -0.00455   2.06762
    A2        2.11230   0.00703   0.00000   0.00371   0.00367   2.11597
    A3        2.09872   0.00151   0.00000   0.00087   0.00087   2.09959
    A4        2.10233  -0.01795   0.00000  -0.00387  -0.00370   2.09862
    A5        2.27822   0.04598   0.00000   0.01755   0.01719   2.29541
    A6        1.90264  -0.02803   0.00000  -0.01368  -0.01349   1.88915
    A7        2.09155   0.02352   0.00000   0.00891   0.00874   2.10029
    A8        2.02159   0.02573   0.00000   0.00799   0.00777   2.02936
    A9        2.17005  -0.04925   0.00000  -0.01690  -0.01651   2.15354
   A10        2.07380   0.00272   0.00000   0.00098   0.00097   2.07477
   A11        2.07418  -0.00368   0.00000  -0.00159  -0.00157   2.07261
   A12        2.13520   0.00096   0.00000   0.00061   0.00060   2.13580
   A13        2.10950  -0.00701   0.00000  -0.00360  -0.00355   2.10595
   A14        2.09293   0.00167   0.00000   0.00091   0.00090   2.09383
   A15        2.08075   0.00534   0.00000   0.00268   0.00265   2.08340
   A16        2.11701   0.00725   0.00000   0.00217   0.00209   2.11910
   A17        2.08073  -0.00218   0.00000  -0.00066  -0.00063   2.08010
   A18        2.08544  -0.00506   0.00000  -0.00151  -0.00146   2.08398
   A19        1.99828   0.01183   0.00000   0.00180   0.00171   1.99999
   A20        1.55607   0.00402   0.00000   0.00541   0.00539   1.56146
   A21        2.00334  -0.03792   0.00000  -0.00306  -0.00267   2.00067
   A22        2.22288  -0.04394   0.00000  -0.01922  -0.01889   2.20399
   A23        2.05697   0.08186   0.00000   0.02228   0.02156   2.07853
   A24        2.11864   0.01465   0.00000   0.00713   0.00701   2.12565
   A25        2.06871  -0.00437   0.00000  -0.00114  -0.00109   2.06762
   A26        2.09584  -0.01028   0.00000  -0.00599  -0.00592   2.08992
   A27        2.13823   0.00671   0.00000  -0.00448  -0.00460   2.13363
   A28        2.09840   0.11848   0.00000   0.04603   0.04507   2.14347
   A29        2.04655  -0.12518   0.00000  -0.04154  -0.04047   2.00608
   A30        2.13414   0.00294   0.00000  -0.00742  -0.00752   2.12662
   A31        2.07611  -0.00034   0.00000   0.00403   0.00407   2.08018
   A32        2.07293  -0.00260   0.00000   0.00339   0.00345   2.07638
   A33        2.09410   0.01365   0.00000   0.00633   0.00624   2.10034
   A34        2.05539  -0.00888   0.00000  -0.00428  -0.00422   2.05117
   A35        2.13370  -0.00477   0.00000  -0.00206  -0.00202   2.13167
   A36        2.07793  -0.00002   0.00000   0.00150   0.00153   2.07946
   A37        2.10002   0.00228   0.00000  -0.00018  -0.00022   2.09980
   A38        2.10524  -0.00226   0.00000  -0.00132  -0.00131   2.10393
   A39        1.94621  -0.01354   0.00000  -0.00153  -0.00138   1.94482
   A40        2.08996  -0.01080   0.00000  -0.00938  -0.00934   2.08063
   A41        2.24701   0.02434   0.00000   0.01090   0.01072   2.25773
   A42        1.91499   0.03070   0.00000   0.02325   0.02298   1.93797
    D1        0.00000   0.00000   0.00000   0.00000   0.00000   0.00000
    D2       -3.14159  -0.00000   0.00000   0.00000   0.00000  -3.14159
    D3        3.14159   0.00000   0.00000   0.00000   0.00000   3.14159
    D4       -0.00000   0.00000   0.00000   0.00000   0.00000   0.00000
    D5        0.00000   0.00000   0.00000   0.00000   0.00000   0.00000
    D6        3.14159   0.00000   0.00000   0.00000   0.00000   3.14159
    D7       -3.14159   0.00000   0.00000   0.00000   0.00000  -3.14159
    D8        0.00000  -0.00000   0.00000  -0.00000  -0.00000   0.00000
    D9       -0.00000  -0.00000   0.00000  -0.00000  -0.00000  -0.00000
   D10        3.14159  -0.00000   0.00000  -0.00000  -0.00000   3.14159
   D11        3.14159  -0.00000   0.00000  -0.00000  -0.00000   3.14159
   D12       -0.00000  -0.00000   0.00000  -0.00000  -0.00000  -0.00000
   D13        3.14159   0.00000   0.00000   0.00000   0.00000   3.14159
   D14       -0.00000   0.00000   0.00000   0.00000   0.00000  -0.00000
   D15        0.00000   0.00000   0.00000   0.00000   0.00000   0.00000
   D16       -3.14159   0.00000   0.00000   0.00000   0.00000  -3.14159
   D17       -3.14159   0.00000   0.00000   0.00000   0.00000  -3.14159
   D18        0.00000   0.00000   0.00000   0.00000   0.00000   0.00000
   D19        0.00000  -0.00000   0.00000  -0.00000  -0.00000   0.00000
   D20       -3.14159  -0.00000   0.00000  -0.00000  -0.00000  -3.14159
   D21       -0.00000  -0.00000   0.00000  -0.00000  -0.00000  -0.00000
   D22        3.14159  -0.00000   0.00000  -0.00000  -0.00000   3.14159
   D23       -3.14159   0.00000   0.00000   0.00000   0.00000  -3.14159
   D24        0.00000   0.00000   0.00000   0.00000   0.00000   0.00000
   D25       -0.00000  -0.00000   0.00000  -0.00000  -0.00000  -0.00000
   D26        3.14159  -0.00000   0.00000  -0.00000  -0.00000   3.14159
   D27        3.14159  -0.00000   0.00000  -0.00000  -0.00000   3.14159
   D28       -0.00000   0.00000   0.00000   0.00000   0.00000  -0.00000
   D29       -0.00000   0.00000   0.00000   0.00000   0.00000  -0.00000
   D30        3.14158   0.00000   0.00000   0.00000   0.00000   3.14158
   D31        0.00000  -0.00000   0.00000  -0.00000  -0.00000   0.00000
   D32       -3.14158  -0.00000   0.00000  -0.00000  -0.00000  -3.14159
   D33       -0.00001  -0.00000   0.00000  -0.00000  -0.00000  -0.00001
   D34        3.14158  -0.00000   0.00000  -0.00000  -0.00000   3.14158
   D35        3.14158  -0.00000   0.00000  -0.00000  -0.00000   3.14158
   D36       -0.00001  -0.00000   0.00000  -0.00000  -0.00000  -0.00001
   D37        0.00001   0.00000   0.00000   0.00000   0.00000   0.00001
   D38       -3.14158   0.00000   0.00000   0.00000   0.00000  -3.14158
   D39       -3.14158   0.00000   0.00000   0.00000   0.00000  -3.14158
   D40        0.00001   0.00000   0.00000   0.00000   0.00000   0.00001
   D41        3.14158  -0.00000   0.00000   0.00000   0.00000   3.14158
   D42       -0.00002  -0.00000   0.00000  -0.00000  -0.00000  -0.00002
   D43       -0.00002  -0.00000   0.00000  -0.00000  -0.00000  -0.00002
   D44        3.14157  -0.00000   0.00000  -0.00000  -0.00000   3.14157
   D45        0.00000  -0.00000   0.00000  -0.00000  -0.00000   0.00000
   D46       -3.14159   0.00000   0.00000  -0.00000  -0.00000  -3.14159
   D47        3.14159  -0.00000   0.00000  -0.00000  -0.00000   3.14159
   D48       -0.00000  -0.00000   0.00000  -0.00000  -0.00000  -0.00000
[...]
 1015,0.,0.,-0.00005442,0.,0.,0.00002494,0.,0.,-0.00004171,-0.00000014,
 -0.00000011,0.00034812,-0.00000003,0.00000011,0.00110311,0.00000028,-0
 .00000451,-0.07053657,-0.00000318,0.00000061,0.00168694,-0.00000082,0.
 00001476,0.17480048,0.00011533,-0.00004336,0.,-0.00023865,0.00053809,0
 .,0.00035325,-0.00073467,0.00000002,-0.00016783,0.00020635,0.,-0.00000
 750,-0.00001482,0.,-0.00009165,0.00005609,0.,-0.00001025,0.00002186,0.
 ,0.00004003,-0.00000968,0.,-0.00002311,0.00001590,0.,-0.00000457,0.000
 01092,0.,-0.00296140,0.00197761,0.00000003,-0.00019841,0.00060274,0.,-
 0.04019760,0.01703870,0.00000021,-0.22082888,0.15492584,0.00000388,0.0
 0135470,0.01498901,0.00000054,0.76264866,-0.00048853,0.00083501,-0.000
 00001,0.00122202,-0.00081752,0.00000003,-0.00049532,0.00123621,0.00000
 012,-0.00036117,-0.00016761,0.,-0.00011968,-0.00076479,0.,0.00101049,-
 0.00015599,0.,-0.00003118,-0.00007770,0.,0.00001270,0.00003809,0.,0.00
 010195,-0.00003376,0.,0.00005649,-0.00002902,0.,0.00579535,0.00171542,
 -0.00000003,-0.00133397,-0.00088555,-0.00000007,0.06939606,0.03582535,
 0.00000108,0.08177455,-0.27585425,-0.00000559,0.02384679,-0.07548927,-
 0.00000248,-0.00016420,0.67913459,-0.00000003,0.00000004,0.00003721,0.
 00000008,-0.00000003,0.00025514,0.,0.,-0.00070359,-0.00000003,0.,-0.00
 010996,0.,-0.00000004,0.00007007,0.00000005,0.,-0.00001104,0.,0.,0.000
 00020,0.,0.,-0.00000381,0.,0.,0.00001366,0.,0.,-0.00002039,0.00000009,
 0.00000011,0.00011084,-0.00000005,-0.00000007,-0.00047057,0.00000206,0
 .00000100,0.00694947,0.00000169,-0.00000577,-0.06284197,0.00000092,-0.
 00000224,-0.00422366,0.00000405,0.00001933,0.12858024,0.00022845,0.000
 06485,0.,-0.00058274,0.00015709,0.00000002,0.00028057,-0.00004076,0.,0
 .00000107,0.00001723,0.,0.00004642,0.00004108,0.,-0.00004520,-0.000072
 24,0.,-0.00001126,-0.00000838,0.,0.00002962,0.00000750,0.,0.00001005,-
 0.00000070,0.,0.00002723,-0.00000382,0.,0.00020999,0.00036784,0.000000
 01,-0.00052967,0.00145396,-0.00000002,-0.00621083,-0.02782489,-0.00000
 086,-0.10144398,-0.10225321,-0.00000354,-0.00557691,0.00115094,-0.0000
 0007,0.01106816,0.01879682,0.00000061,0.10365482,-0.00002577,-0.000046
 66,0.,-0.00000714,0.00036215,0.,0.00015778,-0.00014695,0.,-0.00000372,
 0.00003658,0.,0.00000584,0.00003488,0.,-0.00005408,0.00002793,0.,-0.00
 000255,0.00001030,0.,0.00001015,-0.00000078,0.,-0.00000656,0.00000152,
 0.,-0.00000758,0.00000249,0.,-0.00052083,0.00019780,0.00000002,-0.0001
 7483,0.00003725,0.00000004,0.00144308,-0.00000066,-0.00000012,-0.09997
 836,-0.29742427,-0.00000844,0.00014595,0.00182088,-0.00000013,-0.01349
 225,-0.01725936,-0.00000075,0.10737302,0.31473176,0.00000001,0.,-0.000
 00463,-0.00000003,0.00000001,-0.00044733,0.,0.00000002,0.00009584,0.00
 000001,0.,0.00007797,0.,0.,-0.00002448,0.,0.,0.00002317,0.,0.,-0.00001
 067,0.,0.,-0.00001287,0.,0.,-0.00000611,0.,0.,0.00001615,0.00000007,0.
 ,0.00006136,-0.00000003,0.00000010,0.00082067,0.00000034,-0.00000012,0
 .00312541,-0.00000387,-0.00000844,-0.03741722,0.,-0.00000032,0.0057887
 6,-0.00000023,-0.00000081,0.00473169,0.00000372,0.00000939,0.02498966,
 0.00012276,0.00034215,0.,0.00036400,-0.00013839,0.,0.00092362,-0.00018
 092,0.00000004,-0.00036094,-0.00016858,0.,0.00000886,-0.00030612,0.,0.
 00029499,-0.00008908,0.,-0.00003061,-0.00000974,0.,0.00010790,0.000017
 26,0.,0.00003820,-0.00001517,0.,0.00003210,0.00000167,0.,0.00211252,0.
 00328471,0.00000015,0.00046292,0.00008912,-0.00000004,0.05756363,0.031
 15285,0.00000134,-0.06078168,0.02883785,0.00000079,-0.17612812,0.06142
 620,0.00000257,-0.01077914,-0.08804511,-0.00000300,-0.00081155,0.00068
 021,-0.00000018,0.79349183,0.00032622,-0.00024773,0.00000002,-0.000897
 01,-0.00023063,-0.00000001,-0.00036031,0.00006870,-0.00000003,0.000382
 82,0.00006453,0.,0.00007646,0.00045490,0.,-0.00044093,-0.00005297,0.,-
 0.00000095,0.00002302,0.,0.00000086,-0.00001048,0.,-0.00002941,0.00001
 472,0.,0.00000737,0.00000382,0.,-0.00111574,-0.00081991,-0.00000002,0.
 00121901,-0.00016195,0.00000001,-0.00788330,-0.03665855,-0.00000170,0.
 02454514,-0.01470835,-0.00000029,0.13306615,-0.26799330,-0.00000766,-0
 .03755756,0.02344039,0.00000037,0.00038434,0.00050925,0.00000014,0.043
 92662,0.72383245,0.00000001,0.,-0.00023265,-0.00000003,-0.00000003,-0.
 00002173,-0.00000003,0.00000002,-0.00030906,0.00000002,0.,0.00000628,0
 .,0.00000001,0.00001106,-0.00000001,0.,0.00001928,0.,0.,-0.00001282,0.
 ,0.,-0.00000844,0.,0.,-0.00000758,0.,0.,0.00003979,-0.00000011,-0.0000
 0009,0.00065491,0.00000006,0.,-0.00002639,-0.00000013,-0.00000105,0.00
 699627,0.00000080,-0.00000034,-0.00352878,0.00000538,-0.00000832,-0.07
 079180,-0.00000151,0.00000023,0.00846670,0.00000001,0.00000006,-0.0010
 6140,0.00000113,0.00002325,0.12309246,0.00032331,-0.00059325,0.0000000
 1,-0.00113731,0.00035821,-0.00000002,-0.00034620,-0.00014417,-0.000000
 07,0.00054867,0.00013483,0.,0.00006117,0.00071588,0.,-0.00077253,0.000
 04774,0.,0.00002101,0.00005780,0.,-0.00002594,-0.00003594,0.,-0.000077
 58,0.00003051,0.,-0.00003817,0.00001932,0.,-0.00288841,-0.00129632,0.,
 0.00090259,0.00021062,0.00000004,-0.04315064,-0.02336204,-0.00000081,0
 .06643067,-0.01214368,-0.00000031,-0.05117699,0.06665743,0.00000229,-0
 .15744655,-0.03370319,-0.00000187,-0.00191601,0.00418758,0.00000017,-0
 .40312595,-0.07316126,-0.00000255,0.75604189,0.00010935,-0.00018761,0.
 ,-0.00020463,0.00027503,-0.00000001,0.00033543,-0.00079417,-0.00000003
 ,-0.00009852,0.00013309,0.,0.00003895,0.00007119,0.,-0.00020431,0.0000
 9072,0.,0.00000917,0.00001400,0.,-0.00001563,-0.00000587,0.,-0.0000261
 1,0.00000969,0.,-0.00001021,0.00000540,0.,-0.00348015,-0.00051584,0.,0
 .00027272,0.00021439,0.00000003,-0.03870024,-0.02236186,-0.00000075,0.
 04539148,-0.05973626,-0.00000228,0.01021602,0.05990366,0.00000220,-0.1
 0777966,-0.30505223,-0.00000987,0.00342835,-0.00240464,-0.00000017,-0.
 00133412,-0.13825790,-0.00000296,-0.03515764,0.71446587,0.,0.,0.000018
 08,-0.00000001,0.00000002,-0.00000934,0.00000002,-0.00000004,0.0001869
 6,0.,0.,0.00000878,0.,0.,-0.00001475,-0.00000001,0.,0.00000293,0.,0.,-
 0.00000019,0.,0.,0.00000630,0.,0.,-0.00000093,0.,0.,-0.00000691,-0.000
 00014,-0.00000001,-0.00013250,0.,0.,0.00001455,-0.00000157,-0.00000077
 ,-0.00371478,0.00000177,-0.00000223,0.00672957,0.00000053,0.00000233,0
 .00054273,-0.00000436,-0.00000969,-0.06419639,0.00000007,-0.00000029,0
 .00753443,-0.00000024,-0.00000312,-0.05802147,-0.00000087,0.00002244,0
 .14132000,0.00001788,-0.00006592,0.,-0.00006947,0.00011629,0.,-0.00002
 738,-0.00004968,0.,0.00003969,0.00003512,0.,-0.00000756,0.00005832,0.,
 -0.00007254,0.00001337,0.,0.00000169,0.00001087,0.,0.00000433,-0.00000
 577,0.,-0.00001158,0.00000548,0.,-0.00000890,0.00000529,0.,-0.00041498
 ,0.00033587,0.,0.00002253,0.00005907,0.,0.00027443,0.00346975,0.000000
 03,-0.01379192,-0.00645657,-0.00000029,0.00058409,0.00018981,0.,-0.341
 60685,-0.04178087,-0.00000325,0.00078559,0.00009537,0.00000004,0.00125
 747,-0.00228452,-0.00000013,-0.00684766,0.00254780,0.00000007,0.359957
 46,-0.00000267,0.00002287,0.,0.00003070,-0.00006263,0.,0.00007079,0.00
 004641,0.,-0.00000554,-0.00004128,0.,0.00001121,-0.00001160,0.,0.00002
 197,-0.00000770,0.,0.00000044,-0.00000474,0.,0.00000007,0.00000255,0.,
 0.00000513,-0.00000412,0.,0.00000340,-0.00000159,0.,0.00043710,-0.0003
 0032,0.,0.00001044,0.00001931,0.,0.00230147,-0.00359366,-0.00000032,0.
 02593921,0.00663882,0.00000029,0.00041564,-0.00159425,-0.00000003,-0.0
 4252027,-0.06390761,-0.00000139,-0.00013067,0.00093855,0.00000019,-0.0
 0125322,-0.00523595,-0.00000045,-0.02971318,0.00088899,-0.00000016,0.0
 4476445,0.06413844,0.,0.,-0.00000184,0.,0.,-0.00000747,0.,0.,-0.000186
 58,0.,0.,-0.00000535,0.,0.,0.00001414,0.,0.,-0.00000516,0.,0.,0.000001
 00,0.,0.,-0.00000368,0.,0.,0.00000200,0.,0.,0.00000432,0.00000002,0.,-
 0.00012609,0.,0.,0.00001135,0.00000010,-0.00000030,0.00728141,0.000000
 69,0.00000014,0.00180588,0.00000006,-0.00000009,-0.00070537,-0.0000031
 8,-0.00000145,-0.03372288,0.00000002,0.00000018,-0.00470377,-0.0000001
 1,-0.00000045,0.00633919,-0.00000107,0.00000006,0.00189336,0.00000350,
 0.00000168,0.02510076,-0.00002958,-0.00000488,0.,0.00000011,0.00009053
 ,0.,0.00000538,0.00002750,0.,-0.00000185,0.00000623,0.,-0.00000977,-0.
 00001657,0.,0.00001311,0.00000932,0.,0.00000122,-0.00000033,0.,-0.0000
 0859,0.00000031,0.,0.00000007,0.00000081,0.,-0.00000315,-0.00000146,0.
 ,0.00006738,-0.00006406,-0.00000002,-0.00020903,0.00001334,0.,-0.00193
 101,0.00213250,0.00000009,-0.00108193,0.00062261,0.00000002,0.00879677
 ,0.01862633,0.00000070,-0.00527542,0.00041807,0.00000002,0.00008238,-0
 .00010127,0.,-0.10422213,-0.10976386,-0.00000405,-0.00548263,-0.028634
 94,-0.00000109,-0.00043853,-0.00138661,-0.00000006,0.10746975,0.000021
 75,0.00007790,0.,0.00000034,-0.00013141,0.,0.00007473,0.00003172,0.,-0
 .00003720,-0.00002175,0.,0.00001107,-0.00004090,0.,0.00005168,-0.00002
 352,0.,-0.00000531,-0.00000415,0.,0.00000834,0.00000525,0.,0.00000921,
 -0.00000348,0.,0.00001071,-0.00000215,0.,0.00014635,0.00032687,0.00000
 001,0.00020823,-0.00015141,0.,0.00372575,-0.00208265,-0.00000028,0.001
 02846,0.00034454,0.00000006,-0.01420501,-0.01853633,-0.00000082,-0.000
 16002,0.00200453,-0.00000024,-0.00005760,-0.00005600,0.00000003,-0.105
 96559,-0.30073400,-0.00001023,0.00204572,0.00148137,-0.00000002,0.0001
 0562,-0.00002786,-0.00000002,0.11590390,0.31543162,0.,0.,0.00001210,0.
 ,0.,-0.00002143,0.,0.,-0.00002964,0.,0.,-0.00000065,0.,0.,-0.00000419,
 0.,0.,0.00000159,0.,0.,0.00000176,0.,0.,0.00000445,0.,0.,0.00000253,0.
 ,0.,-0.00000117,0.,0.00000001,-0.00000502,0.00000002,0.,-0.00005205,0.
 00000013,-0.00000026,0.00496187,0.00000012,0.00000002,-0.00091740,-0.0
 0000069,-0.00000086,0.00492505,-0.00000003,-0.00000014,0.00757394,0.,0
 .00000002,-0.00062758,-0.00000385,-0.00001012,-0.03540419,-0.00000003,
 -0.00000012,0.00279255,0.,0.,0.00041169,0.00000434,0.00001109,0.024978
 35,0.00001294,-0.00002857,0.,-0.00003018,0.00007646,0.,0.00006827,-0.0
 0005225,0.,0.00000878,0.00000845,0.,0.00000149,0.00002773,0.,-0.000035
 71,0.00000851,0.,0.00000047,0.00000502,0.,0.00000661,-0.00000277,0.,-0
 .00000624,0.00000223,0.,-0.00000392,0.00000315,0.,-0.00008351,0.000127
 59,0.00000001,-0.00000860,0.00013166,0.,-0.00090035,-0.00056375,-0.000
 00003,0.00043483,-0.00292459,-0.00000011,-0.00404952,-0.00246358,-0.00
 000012,0.01043285,-0.01051793,-0.00000040,0.00037669,-0.00056385,0.,-0
 .01218242,0.02691951,0.00000109,-0.16675384,0.13746620,0.00000529,0.00
 065958,0.00046181,0.00000001,0.00108067,-0.00025250,0.,0.17250787,0.00
 001374,0.00002224,0.,-0.00004372,-0.00001072,0.,0.00000321,0.00002561,
 0.,-0.00000375,-0.00000615,0.,0.00000656,-0.00000844,0.,0.00001296,-0.
 00001163,0.,-0.00000222,-0.00000413,0.,-0.00000033,0.00000313,0.,0.000
 00523,-0.00000136,0.,0.00000569,-0.00000287,0.,0.00011835,-0.00008580,
 0.,-0.00003023,0.00000823,0.,-0.00082520,0.00017542,0.00000004,-0.0033
 9965,-0.00417044,-0.00000046,-0.00206676,0.00119065,-0.00000031,0.0204
 8179,-0.01476742,-0.00000069,0.00093603,-0.00103980,0.,-0.00533546,0.0
 0647845,0.00000008,0.13865920,-0.23824426,-0.00000781,-0.00013541,0.00
 101297,0.00000019,0.00020592,0.00064603,0.00000021,-0.14878478,0.24835
 076,0.,0.,0.00000088,0.,0.,-0.00003499,0.,0.,0.00006532,0.,0.,0.000007
 90,0.,0.,-0.00000633,0.,0.,-0.00000171,0.,0.,0.00000154,0.,0.,0.000000
 26,0.,0.,-0.00000007,0.,0.,0.00000345,0.00000001,0.,-0.00006778,0.,0.0
 0000001,0.00009801,-0.00000014,0.00000001,-0.00095274,-0.00000014,-0.0
 0000047,0.00664574,-0.00000014,-0.00000012,0.00895152,0.00000086,-0.00
 000060,0.00412320,0.00000005,-0.00000005,-0.00012521,-0.00000002,0.000
 00004,0.00489294,0.00000522,-0.00000793,-0.04074240,0.00000002,0.00000
 018,-0.00362542,0.,0.00000021,-0.00463201,-0.00000578,0.00000870,0.026
 82635,-0.00179994,-0.00775326,-0.00000008,-0.00365642,0.01518178,0.000
 00009,-0.09756785,0.04370487,0.00000060,0.01759158,-0.00222775,-0.0000
 0004,-0.00411332,0.01133589,-0.00000009,-0.00598430,-0.00614250,0.0000
 0007,0.00060614,-0.00093307,0.00000001,-0.00053092,-0.00011618,0.,0.00
 014979,0.00015300,0.,-0.00075665,-0.00015045,0.00000003,-0.47458023,-0
 .06883532,0.00000358,-0.04644331,-0.01029628,-0.00000013,-0.13555289,0
 .06111187,0.00000050,-0.03302580,0.02923962,0.00000054,0.02747292,0.01
 112555,0.00000014,-0.00163140,-0.01145972,-0.00000042,0.00067074,0.000
 97086,0.00000001,-0.00229344,-0.00172440,-0.00000005,0.00297242,0.0031
 9225,0.00000014,-0.00026560,0.00080966,0.00000003,0.00025803,-0.001103
 57,-0.00000006,0.00021960,-0.00000962,0.00000001,0.77444480,0.00164080
 ,-0.00312050,-0.00000011,0.02933115,-0.02281064,-0.00000003,0.01650451
 ,0.00211867,-0.00000017,0.00858476,-0.00790714,0.,-0.00190102,0.006127
 73,-0.00000003,-0.00358373,-0.00457654,0.00000006,0.00044534,-0.000838
 26,0.00000001,-0.00044468,0.00024885,0.,0.00025604,-0.00030794,0.,-0.0
 0044746,0.00001487,0.00000002,-0.08310632,-0.11913974,0.00000065,0.011
 80962,-0.07739895,0.00000016,0.05468540,-0.17846896,-0.00000144,0.0143
 8979,0.00711429,0.00000013,0.01268342,-0.03503284,-0.00000052,-0.00588
 753,0.01020530,0.00000022,-0.00177563,-0.00009465,0.00000004,-0.000849
 55,-0.00605765,-0.00000033,-0.00613796,-0.00417837,-0.00000017,-0.0010
 5625,0.00080223,0.00000002,0.00105090,-0.00047618,-0.00000004,-0.00024
 375,0.00015611,0.,-0.05160270,0.42652970,0.00000011,-0.00000006,-0.000
 41330,-0.00000018,0.00000032,0.00420161,0.00000034,-0.00000014,0.00594
 159,-0.00000002,0.00000001,0.00330264,0.00000003,0.00000003,0.00027268
 ,-0.00000007,0.00000002,0.00070621,0.,0.,-0.00024752,0.,0.,-0.00015425
 ,0.,0.,-0.00049164,0.,0.,0.00007592,0.00000350,0.00000039,-0.06226506,
 -0.00000003,-0.00000004,-0.03848787,0.00000033,-0.00000100,-0.05243433
 ,0.00000026,0.00000027,-0.00288704,0.00000019,-0.00000096,0.00219307,-
 0.00000012,-0.00000010,0.00662437,0.,0.00000011,-0.00320318,-0.0000000
 2,-0.00000027,0.00490358,-0.00000006,-0.00000006,-0.00095369,-0.000000
 02,-0.00000002,0.00089888,0.00000002,-0.00000002,0.00005160,0.,0.00000
 004,-0.00088972,-0.00000443,0.00000127,0.13496821,-0.00034885,0.001621
 82,-0.00000005,0.00157085,0.00045101,0.,0.00588397,-0.00077473,0.00000
 018,-0.00160873,-0.00033627,0.00000003,0.00004858,-0.00148346,0.,0.001
 54250,0.00010895,0.,-0.00012546,0.00005877,0.,0.00036555,0.00002885,0.
 00000001,0.00006380,-0.00003572,0.,0.00006266,0.00004764,0.,0.01031117
 ,0.01660397,0.00000052,-0.00014805,0.00008684,-0.00000005,-0.00995683,
 -0.02599726,-0.00000072,-0.00843308,0.00521763,0.00000024,-0.31299728,
 -0.08281298,-0.00000214,-0.00529407,-0.01502068,-0.00000055,-0.0007992
 0,-0.00027886,-0.00000005,-0.08307388,0.00895900,0.00000037,0.01547792
 ,0.01158877,0.00000031,-0.00010127,-0.00026004,-0.00000001,0.00109829,
 -0.00174069,0.00000004,-0.00148623,0.00033966,0.00000004,-0.01893814,0
 .01295326,0.00000038,0.59263334,-0.00041487,-0.00019280,0.00000003,0.0
 0017566,-0.00177366,0.00000001,-0.00582610,-0.00095808,-0.00000017,-0.
 00021339,-0.00038010,0.,0.00032933,-0.00003669,0.,0.00014628,-0.000022
 73,0.,0.00010418,-0.00016782,0.,0.00002153,0.00005923,0.,0.00011540,-0
 .00007717,0.,0.00007206,-0.00004704,0.,0.00710915,-0.02425229,-0.00000
 092,-0.00091073,-0.00310976,0.00000004,-0.03916147,-0.00630601,-0.0000
 0052,0.00660613,-0.00749207,-0.00000036,-0.04798471,-0.13315073,-0.000
 00131,-0.00184036,0.00568610,0.00000020,-0.00161540,-0.00011364,-0.000
 00001,0.04501782,0.01376845,-0.00000005,-0.00181292,-0.00913557,-0.000
 00058,-0.00000890,0.00044016,0.00000004,0.00057278,0.00205232,0.000000
 20,0.00154231,0.00018346,0.,0.00332860,0.00524850,0.00000016,-0.146859
 27,0.50136344,-0.00000001,-0.00000001,-0.00007233,0.00000001,-0.000000
 04,-0.00008739,-0.00000013,-0.00000009,0.00046147,0.,0.,0.00015083,0.,
 0.,-0.00003401,0.,0.,0.00003287,0.,0.,-0.00001294,0.,0.,-0.00004972,0.
 ,0.,-0.00001730,0.,0.,-0.00000179,0.00000035,-0.00000068,0.00440833,-0
 .00000003,-0.00000013,-0.00058608,-0.00000128,-0.00000059,0.00948553,0
 .00000034,-0.00000040,0.00629041,-0.00000263,-0.00000151,-0.05264596,-
 0.00000008,0.00000041,-0.00108571,-0.00000003,-0.00000002,0.00043647,0
 .00000166,-0.00000020,0.01118919,-0.00000037,-0.00000055,0.00467882,0.
 ,0.00000003,-0.00057867,0.00000002,0.00000017,-0.00329152,0.00000002,0
 .00000001,-0.00020622,0.00000001,0.00000023,-0.00265624,0.00000264,0.0
 0000373,0.03272289,0.00012026,-0.00029371,0.,-0.00059800,0.00046777,-0
 .00000001,0.00023407,0.00195550,0.00000003,0.00068984,0.00050013,-0.00
 000002,-0.00020493,0.00012369,0.,-0.00025433,-0.00002266,0.,-0.0000042
 7,0.00001752,0.,-0.00052541,-0.00004670,-0.00000004,-0.00000338,0.0000
 1244,0.,-0.00002549,-0.00004826,0.,-0.01090408,0.00026205,-0.00000004,
 -0.00065374,-0.00049825,0.00000002,0.00217819,0.00218337,0.00000017,0.
 00028394,0.00089836,0.00000004,-0.04371756,0.03563201,0.00000003,0.000
 75029,0.00109028,0.00000004,0.00045557,0.00014778,0.00000002,-0.002990
 96,-0.00459426,-0.00000028,-0.00159326,0.00104967,0.00000008,0.0000595
 1,-0.00001129,0.,-0.00017956,0.00017562,0.,-0.00027013,-0.00015121,0.,
 0.00275418,-0.00729840,-0.00000021,-0.18574756,0.18150690,-0.00000052,
 0.24014681,0.00017260,0.00071118,-0.00000004,0.00082786,0.00249220,-0.
 00000004,0.00872752,-0.00261195,0.00000016,-0.00083515,0.00069789,0.00
 000003,-0.00034891,-0.00062599,0.,0.00039156,0.00029497,0.,-0.00015049
 ,0.00022609,0.,0.00036399,-0.00000942,0.,-0.00015436,0.00010465,0.,-0.
 00006983,0.00008706,0.,0.00357580,0.00320139,0.00000083,0.00114805,0.0
 0400244,-0.00000013,0.00021666,-0.00605985,-0.00000016,-0.00334709,0.0
 0044435,0.00000008,0.01086840,0.01846045,0.00000017,-0.00066049,-0.004
 85891,-0.00000016,-0.00039573,-0.00012394,-0.00000003,-0.01108544,0.00
 251070,0.00000020,0.00413671,0.00332119,0.00000009,0.00003143,-0.00015
 800,-0.00000001,0.00029290,-0.00011038,0.00000002,-0.00038230,0.000099
 97,0.,-0.01779914,0.00184211,0.00000003,0.21753381,-0.34158551,-0.0000
 0033,-0.21305837,0.31764730,0.00000001,0.00000004,0.00012730,0.,0.0000
 0012,0.00025832,0.00000034,0.00000008,-0.00010869,-0.00000002,0.000000
 02,-0.00029087,-0.00000002,-0.00000002,-0.00002143,0.00000002,0.,-0.00
 002825,0.,0.00000001,0.00001565,-0.00000002,0.,0.00016829,0.,0.,0.0000
 2087,0.,0.,-0.00000016,-0.00000008,0.00000019,-0.00795704,0.00000007,0
 .00000020,0.00084269,0.00000010,-0.00000018,-0.00172494,-0.00000014,0.
 00000010,-0.00014037,0.00000069,0.00000067,-0.00088292,-0.00000007,-0.
 00000022,-0.00014676,0.,0.,-0.00005712,-0.00000023,0.00000005,0.002814
 66,0.00000029,0.,0.00206427,0.,0.,-0.00009171,0.00000001,0.00000005,-0
 .00073063,0.,0.00000002,-0.00033250,-0.00000046,0.00000004,0.00094350,
 -0.00000118,-0.00000046,-0.00853093,0.00000070,-0.00000072,0.01378880\
 \0.00245196,-0.00229189,0.00000038,-0.00275372,-0.00585221,0.00000082,
 -0.00693336,-0.00068551,-0.00000018,-0.00138173,0.00184491,0.00000003,
 0.00104782,0.00577997,-0.00000009,0.00248363,0.00223276,-0.00000009,0.
 00053743,-0.00040965,-0.00000007,-0.00051219,0.00037808,0.00000002,0.0
 0008382,0.00053752,0.,0.00042054,0.00028710,-0.00000010,0.00366437,-0.
 00728579,-0.00000109,-0.00369620,-0.01449972,-0.00000089,0.00271791,-0
 .00363084,-0.00000029,-0.00632509,0.00284690,0.00000007,-0.00669933,-0
 .00303273,-0.00000174,0.00161962,0.00043118,-0.00000029,-0.00047358,0.
 00027259,-0.00000006,0.00467770,0.00035048,0.00000077,0.00535687,0.004
 07579,0.00000046,0.00006449,0.00051127,-0.00000006,0.00059505,-0.00005
 397,0.,0.00061282,0.00048816,0.00000009,0.00163783,0.00043071,0.000001
 16,0.00517439,0.00302096,-0.00000009,-0.00437104,0.01425394,0.00000121
 \\\@
 The archive entry for this job was punched.


 IF NO USE IS MADE OF THE LABOR OF PAST AGES,
 THE WORLD MUST REMAIN ALWAYS IN THE INFANCY OF KNOWLEDGE.

                          -- CICERO
 Job cpu time:       0 days  0 hours 58 minutes 15.6 seconds.
 Elapsed time:       0 days  0 hours  5 minutes 51.6 seconds.
 File lengths (MBytes):  RWF=    544 Int=      0 D2E=      0 Chk=     40 Scr=      8
 Normal termination of Gaussian 16 at Tue Oct 27 21:13:02 2020.
