NM 2D-scan of HBT TD-WB97XD pVDZ in CTC Relaxed.                        
Freq      RwB97XD                                                     CC-pVDZ             
Number of atoms                            I               25
Info1-9                                    I   N=           9
          89          88        1002           0           0         100
           6          18       -5802
Full Title                                 C   N=           4
NM 2D-scan of HBT TD-WB97XD pVDZ in CTC Relaxed.
Route                                      C   N=           8
#p opt=addgic freq wb97xd/cc-pvdz nosymm int=ultrafine scrf=
(solvent=CarbonTetraChloride)       
Charge                                     I                0
Multiplicity                               I                1
Number of electrons                        I              118
Number of alpha electrons                  I               59
Number of beta electrons                   I               59
Number of basis functions                  I              273
Number of independent functions            I              273
Number of point charges in /Mol/           I                0
Number of translation vectors              I                0
Atomic numbers                             I   N=          25
           6           6           6           6           6           6
           1           1           1           1           7          16
           6           6           6           6           1           6
           6           1           1           1           6           8
           1
Nuclear charges                            R   N=          25
  6.00000000E+00  6.00000000E+00  6.00000000E+00  6.00000000E+00  6.00000000E+00
  6.00000000E+00  1.00000000E+00  1.00000000E+00  1.00000000E+00  1.00000000E+00
  7.00000000E+00  1.60000000E+01  6.00000000E+00  6.00000000E+00  6.00000000E+00
  6.00000000E+00  1.00000000E+00  6.00000000E+00  6.00000000E+00  1.00000000E+00
  1.00000000E+00  1.00000000E+00  6.00000000E+00  8.00000000E+00  1.00000000E+00
Current cartesian coordinates              R   N=          75
  2.83390651E+00 -6.12810378E+00 -5.97768749E-05  1.88341354E+00 -3.67902760E+00
 -5.78684573E-05  3.40740734E+00 -1.49521739E+00 -4.23874083E-05  6.03467953E+00
 -1.83070189E+00 -4.45322818E-05  7.00264465E+00 -4.28730908E+00 -4.32375887E-05
  5.43673425E+00 -6.42468373E+00 -4.75440407E-05  1.55797958E+00 -7.74609859E+00
 -6.79322769E-05  7.30108549E+00 -2.05340075E-01 -3.60416956E-05  9.04850412E+00
 -4.54219371E+00 -3.64086311E-05  6.26168128E+00 -8.31312526E+00 -4.40571766E-05
  1.94736787E+00  7.37014044E-01 -1.71442753E-05 -1.30460691E+00 -2.91243044E+00
 -7.07435419E-05 -2.44428877E+00  2.10970816E+00  8.30506448E-05 -5.01233412E+00
  1.36036455E+00  1.05903940E-04 -1.67461726E+00  4.70407894E+00  9.63247890E-05
 -6.89671803E+00  3.12951501E+00  7.46695083E-05 -5.50034794E+00 -6.45834669E-01
  1.38767893E-04 -3.71018309E+00  6.49988423E+00  3.46299105E-05 -6.19615085E+00
  5.71623025E+00  1.89993861E-05 -8.87948775E+00  2.57385378E+00  8.46959625E-05
 -3.23465818E+00  8.50649222E+00  1.02032370E-05 -7.68574562E+00  7.14669099E+00
 -2.41366085E-05 -5.22089178E-01  2.55959465E-01  1.28344710E-05  6.85521389E-01
  5.28435344E+00  1.52327095E-04  2.05179532E+00  2.92560934E+00 -1.39871685E-05
Number of symbols in /Mol/                 I                0
Int Atom Types                             I   N=          25
           0           0           0           0           0           0
           0           0           0           0           0           0
           0           0           0           0           0           0
           0           0           0           0           0           0
           0
Force Field                                I                0
Atom Types                                 C   N=          25
                                                            
                                                            
                                                            
                                                            
                                                            
MM charges                                 R   N=          25
  0.00000000E+00  0.00000000E+00  0.00000000E+00  0.00000000E+00  0.00000000E+00
  0.00000000E+00  0.00000000E+00  0.00000000E+00  0.00000000E+00  0.00000000E+00
  0.00000000E+00  0.00000000E+00  0.00000000E+00  0.00000000E+00  0.00000000E+00
  0.00000000E+00  0.00000000E+00  0.00000000E+00  0.00000000E+00  0.00000000E+00
  0.00000000E+00  0.00000000E+00  0.00000000E+00  0.00000000E+00  0.00000000E+00
Integer atomic weights                     I   N=          25
          12          12          12          12          12          12
           1           1           1           1          14          32
          12          12          12          12           1          12
          12           1           1           1          12          16
           1
Real atomic weights                        R   N=          25
  1.20000000E+01  1.20000000E+01  1.20000000E+01  1.20000000E+01  1.20000000E+01
  1.20000000E+01  1.00782504E+00  1.00782504E+00  1.00782504E+00  1.00782504E+00
  1.40030740E+01  3.19720718E+01  1.20000000E+01  1.20000000E+01  1.20000000E+01
  1.20000000E+01  1.00782504E+00  1.20000000E+01  1.20000000E+01  1.00782504E+00
  1.00782504E+00  1.00782504E+00  1.20000000E+01  1.59949146E+01  1.00782504E+00
Atom fragment info                         I   N=          25
           0           0           0           0           0           0
           0           0           0           0           0           0
           0           0           0           0           0           0
           0           0           0           0           0           0
           0
Atom residue num                           I   N=          25
           0           0           0           0           0           0
           0           0           0           0           0           0
           0           0           0           0           0           0
           0           0           0           0           0           0
           0
Nuclear spins                              I   N=          25
           0           0           0           0           0           0
           1           1           1           1           2           0
           0           0           0           0           1           0
           0           1           1           1           0           0
           1
Nuclear ZEff                               R   N=          25
 -3.60000000E+00 -3.60000000E+00 -3.60000000E+00 -3.60000000E+00 -3.60000000E+00
 -3.60000000E+00 -1.00000000E+00 -1.00000000E+00 -1.00000000E+00 -1.00000000E+00
 -4.55000000E+00 -1.36000000E+01 -3.60000000E+00 -3.60000000E+00 -3.60000000E+00
 -3.60000000E+00 -1.00000000E+00 -3.60000000E+00 -3.60000000E+00 -1.00000000E+00
 -1.00000000E+00 -1.00000000E+00 -3.60000000E+00 -5.60000000E+00 -1.00000000E+00
Nuclear ZNuc                               R   N=          25
  6.00000000E+00  6.00000000E+00  6.00000000E+00  6.00000000E+00  6.00000000E+00
  6.00000000E+00  1.00000000E+00  1.00000000E+00  1.00000000E+00  1.00000000E+00
  7.00000000E+00  1.60000000E+01  6.00000000E+00  6.00000000E+00  6.00000000E+00
  6.00000000E+00  1.00000000E+00  6.00000000E+00  6.00000000E+00  1.00000000E+00
  1.00000000E+00  1.00000000E+00  6.00000000E+00  8.00000000E+00  1.00000000E+00
Nuclear QMom                               R   N=          25
  0.00000000E+00  0.00000000E+00  0.00000000E+00  0.00000000E+00  0.00000000E+00
  0.00000000E+00  0.00000000E+00  0.00000000E+00  0.00000000E+00  0.00000000E+00
  2.04400000E+00  0.00000000E+00  0.00000000E+00  0.00000000E+00  0.00000000E+00
  0.00000000E+00  0.00000000E+00  0.00000000E+00  0.00000000E+00  0.00000000E+00
  0.00000000E+00  0.00000000E+00  0.00000000E+00  0.00000000E+00  0.00000000E+00
Nuclear GFac                               R   N=          25
  0.00000000E+00  0.00000000E+00  0.00000000E+00  0.00000000E+00  0.00000000E+00
  0.00000000E+00  2.79284600E+00  2.79284600E+00  2.79284600E+00  2.79284600E+00
  4.03761000E-01  0.00000000E+00  0.00000000E+00  0.00000000E+00  0.00000000E+00
  0.00000000E+00  2.79284600E+00  0.00000000E+00  0.00000000E+00  2.79284600E+00
  2.79284600E+00  2.79284600E+00  0.00000000E+00  0.00000000E+00  2.79284600E+00
MicOpt                                     I   N=          25
          -1          -1          -1          -1          -1          -1
          -1          -1          -1          -1          -1          -1
          -1          -1          -1          -1          -1          -1
          -1          -1          -1          -1          -1          -1
          -1
Number of residues                         I                0
Number of secondary structures             I                0
Redundant internal dimensions              I   N=           4
         136           0           0           0
CrData-IFlags                              I   N=          16
          -2        2717           1         136        5394         228
           1           0           0           1           0           0
           0           0           0           0
CrData-InfCrd                              I   N=       32604
         100          -1           1           4           1           0
           1          -1          -1           0           0           1
          62          -1           5           1           1           0
           1          -1          -1           0           0           2
           2           0           6           3           1           0
           1           0           3           1           0           3
         100          -1           9           4           1           0
           1          -1          -1           0           0           1
          62          -1          13           1           1           0
           1          -1          -1           0           0           2
           2           0          14           3           1           0
           1          10          13           1           0           3
         100          -1          17           4           1           0
           1          -1          -1           0           0           1
          62          -1          21           1           1           0
           1          -1          -1           0           0           2
           2           0          22           3           1           0
           1          20          23           1           0           3
         100          -1          25           4           1           0
           1          -1          -1           0           0           1
          62          -1          29           1           1           0
           1          -1          -1           0           0           2
           2           0          30           3           1           0
           1          30          33           1           0           3
         100          -1          33           4           1           0
           1          -1          -1           0           0           1
          62          -1          37           1           1           0
           1          -1          -1           0           0           2
           2           0          38           3           1           0
           1          40          43           1           0           3
         100          -1          41           4           1           0
           1          -1          -1           0           0           1
          62          -1          45           1           1           0
           1          -1          -1           0           0           2
           2           0          46           3           1           0
           1          51          54           1           0           3
         100          -1          49           4           1           0
           1          -1          -1           0           0           1
          62          -1          53           1           1           0
           1          -1          -1           0           0           2
           2           0          54           3           1           0
           1          61          64           1           0           3
         100          -1          57           4           1           0
           1          -1          -1           0           0           1
          62          -1          61           1           1           0
           1          -1          -1           0           0           2
           2           0          62           3           1           0
           1          72          75           1           0           3
         100          -1          65           4           1           0
           1          -1          -1           0           0           1
          62          -1          69           1           1           0
           1          -1          -1           0           0           2
           2           0          70           3           1           0
           1          82          85           1           0           3
         100          -1          73           4           1           0
           1          -1          -1           0           0           1
          62          -1          77           1           1           0
           1          -1          -1           0           0           2
           2           0          78           3           1           0
           1          92          96           1           0           3
         100          -1          81           4           1           0
           1          -1          -1           0           0           1
          62          -1          85           1           1           0
           1          -1          -1           0           0           2
           2           0          86           3           1           0
           1         103         107           1           0           3
         100          -1          89           4           1           0
           1          -1          -1           0           0           1
          62          -1          93           1           1           0
           1          -1          -1           0           0           2
           2           0          94           3           1           0
           1         114         118           1           0           3
         100          -1          97           4           1           0
           1          -1          -1           0           0           1
          62          -1         101           1           1           0
           1          -1          -1           0           0           2
           2           0         102           3           1           0
           1         126         130           1           0           3
         100          -1         105           4           1           0
           1          -1          -1           0           0           1
          62          -1         109           1           1           0
           1          -1          -1           0           0           2
           2           0         110           3           1           0
           1         139         143           1           0           3
         100          -1         113           4           1           0
           1          -1          -1           0           0           1
          62          -1         117           1           1           0
           1          -1          -1           0           0           2
           2           0         118           3           1           0
           1         152         156           1           0           3
         100          -1         121           4           1           0
           1          -1          -1           0           0           1
          62          -1         125           1           1           0
           1          -1          -1           0           0           2
           2           0         126           3           1           0
           1         165         169           1           0           3
         100          -1         129           4           1           0
           1          -1          -1           0           0           1
          62          -1         133           1           1           0
           1          -1          -1           0           0           2
           2           0         134           3           1           0
           1         178         182           1           0           3
         100          -1         137           4           1           0
           1          -1          -1           0           0           1
          62          -1         141           1           1           0
           1          -1          -1           0           0           2
           2           0         142           3           1           0
           1         191         195           1           0           3
         100          -1         145           4           1           0
           1          -1          -1           0           0           1
          62          -1         149           1           1           0
           1          -1          -1           0           0           2
           2           0         150           3           1           0
           1         204         208           1           0           3
         100          -1         153           4           1           0
           1          -1          -1           0           0           1
          62          -1         157           1           1           0
           1          -1          -1           0           0           2
           2           0         158           3           1           0
           1         217         221           1           0           3
         100          -1         161           4           1           0
           1          -1          -1           0           0           1
          62          -1         165           1           1           0
           1          -1          -1           0           0           2
           2           0         166           3           1           0
           1         230         234           1           0           3
         100          -1         169           4           1           0
           1          -1          -1           0           0           1
          62          -1         173           1           1           0
           1          -1          -1           0           0           2
           2           0         174           3           1           0
           1         243         247           1           0           3
         100          -1         177           4           1           0
           1          -1          -1           0           0           1
          62          -1         181           1           1           0
           1          -1          -1           0           0           2
           2           0         182           3           1           0
           1         256         260           1           0           3
         100          -1         185           4           1           0
           1          -1          -1           0           0           1
          62          -1         189           1           1           0
           1          -1          -1           0           0           2
           2           0         190           3           1           0
           1         269         273           1           0           3
         100          -1         193           4           1           0
           1          -1          -1           0           0           1
          62          -1         197           1           1           0
           1          -1          -1           0           0           2
           2           0         198           3           1           0
           1         282         286           1           0           3
         100          -1         201           4           1           0
           1          -1          -1           0           0           1
          62          -1         205           1           1           0
           1          -1          -1           0           0           2
           2           0         206           3           1           0
           1         295         299           1           0           3
         100          -1         209           4           1           0
           1          -1          -1           0           0           1
          62          -1         213           1           1           0
           1          -1          -1           0           0           2
           2           0         214           3           1           0
           1         308         312           1           0           3
         100          -1         217           4           1           0
           1          -1          -1           0           0           1
          61          -1         221           1           1           0
           1          -1          -1           0           0           3
          61          -1         222           1           1           0
           1          -1          -1           0           0           3
          52          -1         223           2           1           0
           1          -1          -1           0           0           4
          52          -1         225           2           1           0
           1          -1          -1           0           0           5
          73          -1         227           1           1           0
           1          -1          -1           0           0           6
           3           0         228           4           1           0
           1         321         324           2           1           7
         100          -1         232           4           1           0
           1          -1          -1           0           0           1
          61          -1         236           1           1           0
           1          -1          -1           0           0           3
          52          -1         237           2           1           0
           1          -1          -1           0           0           4
          52          -1         239           2           1           0
           1          -1          -1           0           0           5
          73          -1         241           1           1           0
           1          -1          -1           0           0           6
           3           0         242           4           1           0
           1         333         336           2           1           7
         100          -1         246           4           1           0
           1          -1          -1           0           0           1
          52          -1         250           2           1           0
           1          -1          -1           0           0           4
          52          -1         252           2           1           0
           1          -1          -1           0           0           5
          73          -1         254           1           1           0
           1          -1          -1           0           0           6
           3           0         255           4           1           0
           1         345         348           2           1           7
         100          -1         259           4           1           0
           1          -1          -1           0           0           1
          61          -1         263           1           1           0
           1          -1          -1           0           0           3
          52          -1         264           2           1           0
           1          -1          -1           0           0           4
          52          -1         266           2           1           0
           1          -1          -1           0           0           5
          58          -1         268           0           1           1
           1          -1          -1           0           0           1
          52          -1         268           2           2           0
           1          -1          -1           0           0           6
          73          -1         270           1           2           0
           1          -1          -1           0           0           7
           3           0         271           4           2           0
           1         357         360           2           1           8
         100          -1         275           4           2           0
           1          -1          -1           0           0           1
          61          -1         279           1           2           0
           1          -1          -1           0           0           3
          52          -1         280           2           2           0
           1          -1          -1           0           0           4
          52          -1         282           2           2           0
           1          -1          -1           0           0           5
          52          -1         284           2           2           0
           1          -1          -1           0           0           6
          73          -1         286           1           2           0
           1          -1          -1           0           0           7
           3           0         287           4           2           0
           1         369         372           2           1           8
         100          -1         291           4           2           0
           1          -1          -1           0           0           1
          52          -1         295           2           2           0
           1          -1          -1           0           0           4
          52          -1         297           2           2           0
           1          -1          -1           0           0           5
          73          -1         299           1           2           0
           1          -1          -1           0           0           6
           3           0         300           4           2           0
           1         382         385           2           1           7
         100          -1         304           4           2           0
           1          -1          -1           0           0           1
          61          -1         308           1           2           0
           1          -1          -1           0           0           3
          52          -1         309           2           2           0
           1          -1          -1           0           0           4
          52          -1         311           2           2           0
           1          -1          -1           0           0           5
          52          -1         313           2           2           0
           1          -1          -1           0           0           6
          73          -1         315           1           2           0
           1          -1          -1           0           0           7
           3           0         316           4           2           0
           1         395         398           2           1           8
         100          -1         320           4           2           0
           1          -1          -1           0           0           1
          61          -1         324           1           2           0
           1          -1          -1           0           0           3
          52          -1         325           2           2           0
           1          -1          -1           0           0           4
          52          -1         327           2           2           0
           1          -1          -1           0           0           5
          52          -1         329           2           2           0
           1          -1          -1           0           0           6
          73          -1         331           1           2           0
           1          -1          -1           0           0           7
           3           0         332           4           2           0
           1         407         410           2           1           8
         100          -1         336           4           2           0
           1          -1          -1           0           0           1
          52          -1         340           2           2           0
           1          -1          -1           0           0           4
          52          -1         342           2           2           0
           1          -1          -1           0           0           5
          73          -1         344           1           2           0
           1          -1          -1           0           0           6
           3           0         345           4           2           0
           1         420         423           2           1           7
         100          -1         349           4           2           0
           1          -1          -1           0           0           1
          61          -1         353           1           2           0
           1          -1          -1           0           0           3
          52          -1         354           2           2           0
           1          -1          -1           0           0           4