 Entering Gaussian System, Link 0=g16
 Initial command:
 /gpfs/loomis/apps/avx/software/Gaussian/16-C.01_AVX/g16/l1.exe "/home/fas/batista/pev4/scratch60/gauss-scratch/Gau-257653.inp" -scrdir="/home/fas/batista/pev4/scratch60/gauss-scratch/"
 Entering Link 1 = /gpfs/loomis/apps/avx/software/Gaussian/16-C.01_AVX/g16/l1.exe PID=    257654.
  
 Copyright (c) 1988-2019, Gaussian, Inc.  All Rights Reserved.
  
 This is part of the Gaussian(R) 16 program.  It is based on
 the Gaussian(R) 09 system (copyright 2009, Gaussian, Inc.),
 the Gaussian(R) 03 system (copyright 2003, Gaussian, Inc.),
 the Gaussian(R) 98 system (copyright 1998, Gaussian, Inc.),
 the Gaussian(R) 94 system (copyright 1995, Gaussian, Inc.),
 the Gaussian 92(TM) system (copyright 1992, Gaussian, Inc.),
 the Gaussian 90(TM) system (copyright 1990, Gaussian, Inc.),
 the Gaussian 88(TM) system (copyright 1988, Gaussian, Inc.),
 the Gaussian 86(TM) system (copyright 1986, Carnegie Mellon
 University), and the Gaussian 82(TM) system (copyright 1983,
 Carnegie Mellon University). Gaussian is a federally registered
 trademark of Gaussian, Inc.
  
 This software contains proprietary and confidential information,
 including trade secrets, belonging to Gaussian, Inc.
  
 This software is provided under written license and may be
 used, copied, transmitted, or stored only in accord with that
 written license.
  
 The following legend is applicable only to US Government
 contracts under FAR:
  
                    RESTRICTED RIGHTS LEGEND
  
 Use, reproduction and disclosure by the US Government is
 subject to restrictions as set forth in subparagraphs (a)
 and (c) of the Commercial Computer Software - Restricted
 Rights clause in FAR 52.227-19.
  
 Gaussian, Inc.
 340 Quinnipiac St., Bldg. 40, Wallingford CT 06492
  
  
 ---------------------------------------------------------------
 Warning -- This program may not be used in any manner that
 competes with the business of Gaussian, Inc. or will provide
 assistance to any competitor of Gaussian, Inc.  The licensee
 of this program is prohibited from giving any competitor of
 Gaussian, Inc. access to this program.  By using this program,
 the user acknowledges that Gaussian, Inc. is engaged in the
 business of creating and licensing software in the field of
 computational chemistry and represents and warrants to the
 licensee that it is not a competitor of Gaussian, Inc. and that
 it will not use this program in any manner prohibited above.
 ---------------------------------------------------------------
  

 Cite this work as:
 Gaussian 16, Revision C.01,
 M. J. Frisch, G. W. Trucks, H. B. Schlegel, G. E. Scuseria, 
 M. A. Robb, J. R. Cheeseman, G. Scalmani, V. Barone, 
 G. A. Petersson, H. Nakatsuji, X. Li, M. Caricato, A. V. Marenich, 
 J. Bloino, B. G. Janesko, R. Gomperts, B. Mennucci, H. P. Hratchian, 
 J. V. Ortiz, A. F. Izmaylov, J. L. Sonnenberg, D. Williams-Young, 
 F. Ding, F. Lipparini, F. Egidi, J. Goings, B. Peng, A. Petrone, 
 T. Henderson, D. Ranasinghe, V. G. Zakrzewski, J. Gao, N. Rega, 
 G. Zheng, W. Liang, M. Hada, M. Ehara, K. Toyota, R. Fukuda, 
 J. Hasegawa, M. Ishida, T. Nakajima, Y. Honda, O. Kitao, H. Nakai, 
 T. Vreven, K. Throssell, J. A. Montgomery, Jr., J. E. Peralta, 
 F. Ogliaro, M. J. Bearpark, J. J. Heyd, E. N. Brothers, K. N. Kudin, 
 V. N. Staroverov, T. A. Keith, R. Kobayashi, J. Normand, 
 K. Raghavachari, A. P. Rendell, J. C. Burant, S. S. Iyengar, 
 J. Tomasi, M. Cossi, J. M. Millam, M. Klene, C. Adamo, R. Cammi, 
 J. W. Ochterski, R. L. Martin, K. Morokuma, O. Farkas, 
 J. B. Foresman, and D. J. Fox, Gaussian, Inc., Wallingford CT, 2019.
 
 ******************************************
 Gaussian 16:  ES64L-G16RevC.01  3-Jul-2019
                27-Oct-2020 
 ******************************************
 %chk=config_10_13.chk
 %mem=58GB
 %nprocshared=10
 Will use up to   10 processors via shared memory.
 ----------------------------------------------------------------------
 #p opt=addgic freq wb97xd/cc-pvdz nosymm int=ultrafine scrf=(solvent=C
 arbonTetraChloride)
 ----------------------------------------------------------------------
 1/18=20,19=15,26=6,38=1,145=903/1,3;
 2/9=110,12=2,15=1,17=6,18=5,40=1/2;
 3/5=16,11=2,25=1,30=1,70=2201,71=1,72=11,74=-58,75=-5/1,2,3;
 4//1;
 5/5=2,38=5,53=11/2;
 6/7=2,8=2,9=2,10=2,28=1/1;
 7/30=1/1,2,3,16;
 1/18=20,19=15,26=6,145=903/3(2);
 2/9=110,15=1/2;
 99//99;
 2/9=110,15=1/2;
 3/5=16,11=2,25=1,30=1,70=2205,71=1,72=11,74=-58,75=-5/1,2,3;
 4/5=5,16=3,69=1/1;
 5/5=2,38=5,53=11/2;
 7/30=1/1,2,3,16;
 1/18=20,19=15,26=6,145=903/3(-5);
 2/9=110,15=1/2;
 6/7=2,8=2,9=2,10=2,19=2,28=1/1;
 99/9=1/99;
 Leave Link    1 at Tue Oct 27 23:27:43 2020, MaxMem=  7784628224 cpu:               4.3 elap:               0.5
 (Enter /gpfs/loomis/apps/avx/software/Gaussian/16-C.01_AVX/g16/l101.exe)
 ------------------------------------------------
 NM 2D-scan of HBT TD-WB97XD pVDZ in CTC Relaxed.
 ------------------------------------------------
 Symbolic Z-matrix:
 Charge =  0 Multiplicity = 1
 C                     1.59187  -3.25213  -0.00002 
 C                     1.00674  -1.98578  -0.00002 
 C                     1.77262  -0.78865  -0.00002 
 C                     3.1683   -0.89127  -0.00003 
 C                     3.75162  -2.16076  -0.00002 
 C                     2.98295  -3.33229  -0.00002 
 H                     0.9702   -4.15123  -0.00002 
 H                     3.78761   0.00927  -0.00003 
 H                     4.84134  -2.23653  -0.00002 
 H                     3.4722   -4.30836  -0.00001 
 N                     0.97707   0.35023  -0.00003 
 S                    -0.71101  -1.65006  -0.00002 
 C                    -1.35075   1.05854   0.00001 
 C                    -2.7049    0.76682   0.00001 
 C                    -0.88022   2.4607    0.00003 
 C                    -3.65497   1.81979   0.00003 
 H                    -3.05543  -0.26908   0. 
 C                    -1.88376   3.48007   0.00005 
 C                    -3.24703   3.15634   0.00004 
 H                    -4.71888   1.57112   0.00003 
 H                    -1.53724   4.51634   0.00007 
 H                    -3.99564   3.95074   0.00005 
 C                    -0.35041   0.04854  -0.00002 
 O                     0.36114   2.68989   0.00005 
 H                     1.07882   1.18338   0. 
 
 Initializing the GIC definitions file.
 Number of initial coordinates =   134
 Number of input entries/lines =    52
 Number of additional coordinates =     2
 Number of removed coordinates =     0
 Number of frozen coordinates =     2
 Number of final active and frozen coordinates =   136
 ITRead=  0  0  0  0  0  0  0  0  0  0  0  0  0  0  0  0  0  0  0  0
 ITRead=  0  0  0  0  0
 MicOpt= -1 -1 -1 -1 -1 -1 -1 -1 -1 -1 -1 -1 -1 -1 -1 -1 -1 -1 -1 -1
 MicOpt= -1 -1 -1 -1 -1
 NAtoms=     25 NQM=       25 NQMF=       0 NMMI=      0 NMMIF=      0
                NMic=       0 NMicF=      0.
                    Isotopes and Nuclear Properties:
 (Nuclear quadrupole moments (NQMom) in fm**2, nuclear magnetic moments (NMagM)
  in nuclear magnetons)

  Atom         1           2           3           4           5           6           7           8           9          10
 IAtWgt=          12          12          12          12          12          12           1           1           1           1
 AtmWgt=  12.0000000  12.0000000  12.0000000  12.0000000  12.0000000  12.0000000   1.0078250   1.0078250   1.0078250   1.0078250
 NucSpn=           0           0           0           0           0           0           1           1           1           1
 AtZEff=  -0.0000000  -0.0000000  -0.0000000  -0.0000000  -0.0000000  -0.0000000  -0.0000000  -0.0000000  -0.0000000  -0.0000000
 NQMom=    0.0000000   0.0000000   0.0000000   0.0000000   0.0000000   0.0000000   0.0000000   0.0000000   0.0000000   0.0000000
 NMagM=    0.0000000   0.0000000   0.0000000   0.0000000   0.0000000   0.0000000   2.7928460   2.7928460   2.7928460   2.7928460
 AtZNuc=   6.0000000   6.0000000   6.0000000   6.0000000   6.0000000   6.0000000   1.0000000   1.0000000   1.0000000   1.0000000

  Atom        11          12          13          14          15          16          17          18          19          20
 IAtWgt=          14          32          12          12          12          12           1          12          12           1
 AtmWgt=  14.0030740  31.9720718  12.0000000  12.0000000  12.0000000  12.0000000   1.0078250  12.0000000  12.0000000   1.0078250
 NucSpn=           2           0           0           0           0           0           1           0           0           1
 AtZEff=  -0.0000000  -0.0000000  -0.0000000  -0.0000000  -0.0000000  -0.0000000  -0.0000000  -0.0000000  -0.0000000  -0.0000000
 NQMom=    2.0440000   0.0000000   0.0000000   0.0000000   0.0000000   0.0000000   0.0000000   0.0000000   0.0000000   0.0000000
 NMagM=    0.4037610   0.0000000   0.0000000   0.0000000   0.0000000   0.0000000   2.7928460   0.0000000   0.0000000   2.7928460
 AtZNuc=   7.0000000  16.0000000   6.0000000   6.0000000   6.0000000   6.0000000   1.0000000   6.0000000   6.0000000   1.0000000

  Atom        21          22          23          24          25
 IAtWgt=           1           1          12          16           1
 AtmWgt=   1.0078250   1.0078250  12.0000000  15.9949146   1.0078250
 NucSpn=           1           1           0           0           1
 AtZEff=  -0.0000000  -0.0000000  -0.0000000  -0.0000000  -0.0000000
 NQMom=    0.0000000   0.0000000   0.0000000   0.0000000   0.0000000
 NMagM=    2.7928460   2.7928460   0.0000000   0.0000000   2.7928460
 AtZNuc=   1.0000000   1.0000000   6.0000000   8.0000000   1.0000000
 Leave Link  101 at Tue Oct 27 23:27:47 2020, MaxMem=  7784628224 cpu:              34.4 elap:               3.5
 (Enter /gpfs/loomis/apps/avx/software/Gaussian/16-C.01_AVX/g16/l103.exe)

 GradGradGradGradGradGradGradGradGradGradGradGradGradGradGradGradGradGrad
 Berny optimization.
 Initialization pass.
                           ----------------------------
                           !    Initial Parameters    !
                           ! (Angstroms and Degrees)  !
 --------------------------                            --------------------------
 ! Name  Definition              Value          Derivative Info.                !
 --------------------------------------------------------------------------------
 ! R1    R(1,2)                  1.395          estimate D2E/DX2                !
 ! R2    R(1,6)                  1.3934         estimate D2E/DX2                !
 ! R3    R(1,7)                  1.0931         estimate D2E/DX2                !
 ! R4    R(2,3)                  1.4212         estimate D2E/DX2                !
 ! R5    R(2,12)                 1.7502         estimate D2E/DX2                !
 ! R6    R(3,4)                  1.3995         estimate D2E/DX2                !
 ! R7    R(3,11)                 1.3892         estimate D2E/DX2                !
 ! R8    R(4,5)                  1.3971         estimate D2E/DX2                !
 ! R9    R(4,8)                  1.0929         estimate D2E/DX2                !
 ! R10   R(5,6)                  1.4012         estimate D2E/DX2                !
 ! R11   R(5,9)                  1.0923         estimate D2E/DX2                !
 ! R12   R(6,10)                 1.0918         estimate D2E/DX2                !
 ! R13   R(11,23)                1.3613         estimate D2E/DX2                !
 ! R14   R(11,25)                0.8393         estimate D2E/DX2                !
 ! R15   R(12,23)                1.7364         estimate D2E/DX2                !
 ! R16   R(13,14)                1.3852         estimate D2E/DX2                !
 ! R17   R(13,15)                1.479          estimate D2E/DX2                !
 ! R18   R(13,23)                1.4215         estimate D2E/DX2                !
 ! R19   R(14,16)                1.4182         estimate D2E/DX2                !
 ! R20   R(14,17)                1.0936         estimate D2E/DX2                !
 ! R21   R(15,18)                1.4305         estimate D2E/DX2                !
 ! R22   R(15,24)                1.2623         estimate D2E/DX2                !
 ! R23   R(16,19)                1.3974         estimate D2E/DX2                !
 ! R24   R(16,20)                1.0926         estimate D2E/DX2                !
 ! R25   R(18,19)                1.4012         estimate D2E/DX2                !
 ! R26   R(18,21)                1.0927         estimate D2E/DX2                !
 ! R27   R(19,22)                1.0916         estimate D2E/DX2                !
 ! A1    A(2,1,6)              118.0982         estimate D2E/DX2                !
 ! A2    A(2,1,7)              120.5392         estimate D2E/DX2                !
 ! A3    A(6,1,7)              121.3626         estimate D2E/DX2                !
 ! A4    A(1,2,3)              122.5905         estimate D2E/DX2                !
 ! A5    A(1,2,12)             125.8587         estimate D2E/DX2                !
 ! A6    A(3,2,12)             111.5508         estimate D2E/DX2                !
 ! A7    A(2,3,4)              118.4045         estimate D2E/DX2                !
 ! A8    A(2,3,11)             112.455          estimate D2E/DX2                !
 ! A9    A(4,3,11)             129.1404         estimate D2E/DX2                !
 ! A10   A(3,4,5)              118.8835         estimate D2E/DX2                !
 ! A11   A(3,4,8)              120.3115         estimate D2E/DX2                !
 ! A12   A(5,4,8)              120.8051         estimate D2E/DX2                !
 ! A13   A(4,5,6)              122.0517         estimate D2E/DX2                !
 ! A14   A(4,5,9)              118.6557         estimate D2E/DX2                !
 ! A15   A(6,5,9)              119.2926         estimate D2E/DX2                !
 ! A16   A(1,6,5)              119.9716         estimate D2E/DX2                !
 ! A17   A(1,6,10)             119.9208         estimate D2E/DX2                !
 ! A18   A(5,6,10)             120.1076         estimate D2E/DX2                !
 ! A19   A(3,11,23)            112.1314         estimate D2E/DX2                !
 ! A20   A(3,11,25)            138.102          estimate D2E/DX2                !
 ! A21   A(23,11,25)           109.7666         estimate D2E/DX2                !
 ! A22   A(2,12,23)             89.0734         estimate D2E/DX2                !
 ! A23   A(14,13,15)           120.7077         estimate D2E/DX2                !
 ! A24   A(14,13,23)           122.5675         estimate D2E/DX2                !
 ! A25   A(15,13,23)           116.7247         estimate D2E/DX2                !
 ! A26   A(13,14,16)           119.9016         estimate D2E/DX2                !
 ! A27   A(13,14,17)           120.8521         estimate D2E/DX2                !
 ! A28   A(16,14,17)           119.2463         estimate D2E/DX2                !
 ! A29   A(13,15,18)           116.898          estimate D2E/DX2                !
 ! A30   A(13,15,24)           119.0111         estimate D2E/DX2                !
 ! A31   A(18,15,24)           124.0909         estimate D2E/DX2                !
 ! A32   A(14,16,19)           120.9679         estimate D2E/DX2                !
 ! A33   A(14,16,20)           118.9029         estimate D2E/DX2                !
 ! A34   A(19,16,20)           120.1292         estimate D2E/DX2                !
 ! A35   A(15,18,19)           121.193          estimate D2E/DX2                !
 ! A36   A(15,18,21)           116.959          estimate D2E/DX2                !
 ! A37   A(19,18,21)           121.848          estimate D2E/DX2                !
 ! A38   A(16,19,18)           120.3318         estimate D2E/DX2                !
 ! A39   A(16,19,22)           119.7264         estimate D2E/DX2                !
 ! A40   A(18,19,22)           119.9418         estimate D2E/DX2                !
 ! A41   A(11,23,12)           114.7893         estimate D2E/DX2                !
 ! A42   A(11,23,13)           121.9209         estimate D2E/DX2                !
 ! A43   A(12,23,13)           123.2898         estimate D2E/DX2                !
 ! D1    D(6,1,2,3)              0.0            estimate D2E/DX2                !
 ! D2    D(6,1,2,12)          -180.0            estimate D2E/DX2                !
 ! D3    D(7,1,2,3)            179.9999         estimate D2E/DX2                !
 ! D4    D(7,1,2,12)            -0.0001         estimate D2E/DX2                !
 ! D5    D(2,1,6,5)             -0.0001         estimate D2E/DX2                !
 ! D6    D(2,1,6,10)           179.9999         estimate D2E/DX2                !
 ! D7    D(7,1,6,5)            180.0            estimate D2E/DX2                !
 ! D8    D(7,1,6,10)             0.0            estimate D2E/DX2                !
 ! D9    D(1,2,3,4)              0.0002         estimate D2E/DX2                !
 ! D10   D(1,2,3,11)          -180.0            estimate D2E/DX2                !
 ! D11   D(12,2,3,4)          -179.9999         estimate D2E/DX2                !
 ! D12   D(12,2,3,11)            0.0            estimate D2E/DX2                !
 ! D13   D(1,2,12,23)          179.9997         estimate D2E/DX2                !
 ! D14   D(3,2,12,23)           -0.0002         estimate D2E/DX2                !
 ! D15   D(2,3,4,5)             -0.0002         estimate D2E/DX2                !
 ! D16   D(2,3,4,8)            179.9999         estimate D2E/DX2                !
 ! D17   D(11,3,4,5)           180.0            estimate D2E/DX2                !
 ! D18   D(11,3,4,8)             0.0001         estimate D2E/DX2                !
 ! D19   D(2,3,11,23)            0.0003         estimate D2E/DX2                !
 ! D20   D(2,3,11,25)          179.9967         estimate D2E/DX2                !
 ! D21   D(4,3,11,23)         -179.9998         estimate D2E/DX2                !
 ! D22   D(4,3,11,25)           -0.0034         estimate D2E/DX2                !
 ! D23   D(3,4,5,6)              0.0            estimate D2E/DX2                !
 ! D24   D(3,4,5,9)           -179.9999         estimate D2E/DX2                !
 ! D25   D(8,4,5,6)            180.0            estimate D2E/DX2                !
 ! D26   D(8,4,5,9)              0.0            estimate D2E/DX2                !
 ! D27   D(4,5,6,1)              0.0001         estimate D2E/DX2                !
 ! D28   D(4,5,6,10)          -179.9999         estimate D2E/DX2                !
 ! D29   D(9,5,6,1)           -179.9999         estimate D2E/DX2                !
 ! D30   D(9,5,6,10)             0.0            estimate D2E/DX2                !
 ! D31   D(3,11,23,12)          -0.0005         estimate D2E/DX2                !
 ! D32   D(3,11,23,13)         179.9986         estimate D2E/DX2                !
 ! D33   D(25,11,23,12)       -179.998          estimate D2E/DX2                !
 ! D34   D(25,11,23,13)          0.0011         estimate D2E/DX2                !
 ! D35   D(2,12,23,11)           0.0004         estimate D2E/DX2                !
 ! D36   D(2,12,23,13)        -179.9987         estimate D2E/DX2                !
 ! D37   D(15,13,14,16)          0.0007         estimate D2E/DX2                !
 ! D38   D(15,13,14,17)       -179.9996         estimate D2E/DX2                !
 ! D39   D(23,13,14,16)       -179.9994         estimate D2E/DX2                !
 ! D40   D(23,13,14,17)          0.0003         estimate D2E/DX2                !
 ! D41   D(14,13,15,18)         -0.0009         estimate D2E/DX2                !
 ! D42   D(14,13,15,24)        179.9989         estimate D2E/DX2                !
 ! D43   D(23,13,15,18)        179.9992         estimate D2E/DX2                !
 ! D44   D(23,13,15,24)         -0.001          estimate D2E/DX2                !
 ! D45   D(14,13,23,11)        179.9999         estimate D2E/DX2                !
 ! D46   D(14,13,23,12)         -0.0011         estimate D2E/DX2                !
 ! D47   D(15,13,23,11)         -0.0002         estimate D2E/DX2                !
 ! D48   D(15,13,23,12)        179.9988         estimate D2E/DX2                !
 ! D49   D(13,14,16,19)         -0.0001         estimate D2E/DX2                !
 ! D50   D(13,14,16,20)        179.9998         estimate D2E/DX2                !
 ! D51   D(17,14,16,19)       -179.9998         estimate D2E/DX2                !
 ! D52   D(17,14,16,20)          0.0001         estimate D2E/DX2                !
 ! D53   D(13,15,18,19)          0.0005         estimate D2E/DX2                !
 ! D54   D(13,15,18,21)        180.0            estimate D2E/DX2                !
 ! D55   D(24,15,18,19)       -179.9993         estimate D2E/DX2                !
 ! D56   D(24,15,18,21)          0.0002         estimate D2E/DX2                !
 ! D57   D(14,16,19,18)         -0.0003         estimate D2E/DX2                !
 ! D58   D(14,16,19,22)        179.9999         estimate D2E/DX2                !
 ! D59   D(20,16,19,18)        179.9998         estimate D2E/DX2                !
 ! D60   D(20,16,19,22)         -0.0001         estimate D2E/DX2                !
 ! D61   D(15,18,19,16)          0.0001         estimate D2E/DX2                !
 ! D62   D(15,18,19,22)        179.9999         estimate D2E/DX2                !
 ! D63   D(21,18,19,16)       -179.9994         estimate D2E/DX2                !
 ! D64   D(21,18,19,22)          0.0005         estimate D2E/DX2                !
 ! Qtot  GIC-1                  40.0            Frozen                          !
 ! Ptot  GIC-2                 100.0            Frozen                          !
 --------------------------------------------------------------------------------
 NOTE: GIC-type coordinates are in arbitrary units.
 Trust Radius=3.00D-01 FncErr=5.00D-06 GrdErr=5.00D-06 EigMax=2.50D+02 EigMin=1.00D-04
 Number of steps in this run=    146 maximum allowed number of steps=    150.
 GradGradGradGradGradGradGradGradGradGradGradGradGradGradGradGradGradGrad

 Leave Link  103 at Tue Oct 27 23:27:47 2020, MaxMem=  7784628224 cpu:               0.2 elap:               0.0
 (Enter /gpfs/loomis/apps/avx/software/Gaussian/16-C.01_AVX/g16/l202.exe)
                          Input orientation:                          
 ---------------------------------------------------------------------
 Center     Atomic      Atomic             Coordinates (Angstroms)
 Number     Number       Type             X           Y           Z
 ---------------------------------------------------------------------
      1          6           0        1.591866   -3.252127   -0.000019
      2          6           0        1.006735   -1.985781   -0.000022
      3          6           0        1.772616   -0.788651   -0.000024
      4          6           0        3.168300   -0.891269   -0.000027
      5          6           0        3.751620   -2.160759   -0.000023
      6          6           0        2.982945   -3.332294   -0.000018
      7          1           0        0.970203   -4.151235   -0.000016
      8          1           0        3.787609    0.009274   -0.000031
      9          1           0        4.841335   -2.236526   -0.000024
     10          1           0        3.472201   -4.308359   -0.000015
     11          7           0        0.977075    0.350232   -0.000027
     12         16           0       -0.711006   -1.650056   -0.000024
     13          6           0       -1.350755    1.058537    0.000009
     14          6           0       -2.704903    0.766816    0.000014
     15          6           0       -0.880223    2.460702    0.000035
     16          6           0       -3.654971    1.819793    0.000030
     17          1           0       -3.055431   -0.269081    0.000002
     18          6           0       -1.883763    3.480074    0.000046
     19          6           0       -3.247030    3.156340    0.000043
     20          1           0       -4.718880    1.571117    0.000031
     21          1           0       -1.537245    4.516345    0.000065
     22          1           0       -3.995645    3.950740    0.000053
     23          6           0       -0.350412    0.048538   -0.000020
     24          8           0        0.361140    2.689894    0.000050
     25          1           0        1.078821    1.183381    0.000003
 ---------------------------------------------------------------------
                    Distance matrix (angstroms):
                    1          2          3          4          5
     1  C    0.000000
     2  C    1.394994   0.000000
     3  C    2.470098   1.421159   0.000000
     4  C    2.838802   2.422874   1.399452   0.000000
     5  C    2.419839   2.750456   2.408140   1.397092   0.000000
     6  C    1.393387   2.391339   2.816916   2.448053   1.401198
     7  H    1.093097   2.165761   3.456998   3.931795   3.420274
     8  H    3.931669   3.422500   2.167230   1.092941   2.170331
     9  H    3.404482   3.842789   3.393138   2.146803   1.092347
    10  H    2.156684   3.387166   3.908572   3.430578   2.165701
    11  N    3.654444   2.336202   1.389223   2.518490   3.742082
    12  S    2.805326   1.750242   2.628763   3.952819   4.491753
    13  C    5.219276   3.850407   3.628711   4.921747   6.033083
    14  C    5.883378   4.620937   4.740006   6.102767   7.089244
    15  C    6.224760   4.830303   4.194740   5.256068   6.543078
    16  C    7.297511   6.017799   6.021850   7.342131   8.408470
    17  H    5.522313   4.410018   4.855923   6.254754   7.065011
    18  C    7.576445   6.183086   5.620598   6.680717   7.973489
    19  C    8.030153   6.673525   6.384340   7.585486   8.789348
    20  H    7.942871   6.740490   6.907099   8.262624   9.256147
    21  H    8.374992   6.982083   6.252852   7.168294   8.517969
    22  H    9.116007   7.763124   7.465565   8.646801   9.867651
    23  C    3.829730   2.445466   2.282133   3.642056   4.659147
    24  O    6.068138   4.720035   3.754003   4.550261   5.918123
    25  H    4.465080   3.169982   2.090517   2.944502   4.281019
                    6          7          8          9         10
     6  C    0.000000
     7  H    2.172969   0.000000
     8  H    3.437086   5.024700   0.000000
     9  H    2.157388   4.318771   2.480716   0.000000
    10  H    1.091822   2.506927   4.329138   2.483349   0.000000
    11  N    4.193389   4.501472   2.831141   4.650142   5.284707
    12  S    4.058966   3.013695   4.794884   5.583229   4.956390
    13  C    6.169307   5.703381   5.244401   7.014229   7.215572
    14  C    7.011015   6.139514   6.536558   8.121932   7.994625
    15  C    6.962964   6.865987   5.272396   7.402714   8.047595
    16  C    8.402734   7.552841   7.659633   9.414932   9.399512
    17  H    6.770913   5.592571   6.848700   8.138167   7.676311
    18  C    8.372169   8.147515   6.649129   8.826463   9.452304
    19  C    8.995275   8.437162   7.706503   9.721351  10.043396
    20  H    9.130255   8.069137   8.648683  10.290572  10.082760
    21  H    9.057221   9.022983   6.976228   9.289109  10.147411
    22  H   10.086789   9.502718   8.724346  10.787700  11.134696
    23  C    4.747767   4.402512   4.138207   5.672368   5.796113
    24  O    6.568151   6.868187   4.350450   6.658961   7.658606
    25  H    4.900715   5.335721   2.952297   5.084513   5.990616
                   11         12         13         14         15
    11  N    0.000000
    12  S    2.617398   0.000000
    13  C    2.433205   2.783119   0.000000
    14  C    3.705470   3.133193   1.385215   0.000000
    15  C    2.811341   4.114239   1.479009   2.489720   0.000000
    16  C    4.859574   4.550470   2.426710   1.418234   2.847804
    17  H    4.079786   2.720923   2.160669   1.093596   3.490450
    18  C    4.240319   5.262470   2.479504   2.834791   1.430459
    19  C    5.071223   5.434414   2.827833   2.450250   2.466919
    20  H    5.825329   5.141888   3.406906   2.168641   3.940387
    21  H    4.866035   6.221509   3.462834   3.927136   2.158089
    22  H    6.139349   6.492902   3.919220   3.435606   3.453414
    23  C    1.361337   1.736448   1.421542   2.461616   2.469662
    24  O    2.419378   4.470420   2.364721   3.619233   1.262343
    25  H    0.839338   3.351395   2.432781   3.806586   2.338676
                   16         17         18         19         20
    16  C    0.000000
    17  H    2.173210   0.000000
    18  C    2.427696   3.927973   0.000000
    19  C    1.397416   3.430775   1.401179   0.000000
    20  H    1.092585   2.480603   3.417895   2.163162   0.000000
    21  H    3.428725   5.020477   1.092672   2.184715   4.335570
    22  H    2.158007   4.323296   2.163694   1.091557   2.487102
    23  C    3.749327   2.723603   3.758537   4.248391   4.626204
    24  O    4.109284   4.519788   2.379910   3.638195   5.201756
    25  H    4.776380   4.381973   3.748560   4.754530   5.810652
                   21         22         23         24         25
    21  H    0.000000
    22  H    2.522626   0.000000
    23  C    4.622755   5.339935   0.000000
    24  O    2.634348   4.535560   2.735519   0.000000
    25  H    4.237033   5.780008   1.824986   1.668726   0.000000
 Symmetry turned off by external request.
 Stoichiometry    C13H9NOS
 Framework group  C1[X(C13H9NOS)]
 Deg. of freedom    69
 Full point group                 C1      NOp   1
 Rotational constants (GHZ):           1.4081333           0.2861938           0.2378520
 Leave Link  202 at Tue Oct 27 23:27:47 2020, MaxMem=  7784628224 cpu:               0.4 elap:               0.1
 (Enter /gpfs/loomis/apps/avx/software/Gaussian/16-C.01_AVX/g16/l301.exe)
 Standard basis: CC-pVDZ (5D, 7F)
 Ernie: Thresh=  0.10000D-02 Tol=  0.10000D-05 Strict=F.
 Ernie:  40 primitive shells out of 425 were deleted.
   273 basis functions,   629 primitive gaussians,   289 cartesian basis functions
    59 alpha electrons       59 beta electrons
       nuclear repulsion energy      1102.0248040273 Hartrees.
 IExCor= 4639 DFT=T Ex+Corr=wB97XD ExCW=0 ScaHFX=  1.000000
 ScaDFX=  1.000000  1.000000  1.000000  1.000000 ScalE2=  1.000000  1.000000
 IRadAn=      5 IRanWt=     -1 IRanGd=            0 ICorTp=0 IEmpDi=121
 HFx  wShort=  0.000000 wLong=  0.200000 cFull=  0.222036 cShort=  0.000000 cLong=  0.777964
 DFx  wShort=  0.000000 wLong=  0.200000 cFull=  0.000000 cShort=  0.000000 cLong=  1.000000
 NAtoms=   25 NActive=   25 NUniq=   25 SFac= 1.00D+00 NAtFMM=   60 NAOKFM=F Big=F
 Integral buffers will be    131072 words long.
 Raffenetti 2 integral format.
 Two-electron integral symmetry is turned off.
 R6Disp:  Grimme-D2 Dispersion energy=       -0.0140036128 Hartrees.
 Nuclear repulsion after empirical dispersion term =     1102.0108004145 Hartrees.
 ------------------------------------------------------------------------------
 Polarizable Continuum Model (PCM)
 =================================
 Model                : PCM.
 Atomic radii         : UFF (Universal Force Field).
 Polarization charges : Total charges.
 Charge compensation  : None.
 Solution method      : On-the-fly selection.
 Cavity type          : Scaled VdW (van der Waals Surface) (Alpha=1.100).
 Cavity algorithm     : GePol (No added spheres)
                        Default sphere list used, NSphG=   25.
                        Lebedev-Laikov grids with approx.  5.0 points / Ang**2.
                        Smoothing algorithm: York/Karplus (Gamma=1.0000).
                        Polarization charges: spherical gaussians, with
                                              point-specific exponents (IZeta= 3).
                        Self-potential: point-specific (ISelfS= 7).
                        Self-field    : sphere-specific E.n sum rule (ISelfD= 2).
 1st derivatives      : Analytical E(r).r(x)/FMM algorithm (CHGder, D1EAlg=3).
                        Cavity 1st derivative terms included.
 Solvent              : CarbonTetraChloride, Eps=   2.228000 Eps(inf)=   2.131892
 ------------------------------------------------------------------------------
 GePol: Number of generator spheres                  =      25
 GePol: Total number of spheres                      =      25
 GePol: Number of exposed spheres                    =      25 (100.00%)
 GePol: Number of points                             =    2195
 GePol: Average weight of points                     =       0.12
 GePol: Minimum weight of points                     =   0.16D-08
 GePol: Maximum weight of points                     =    0.20577
 GePol: Number of points with low weight             =     159
 GePol: Fraction of low-weight points (<1% of avg)   =       7.24%
 GePol: Cavity surface area                          =    271.520 Ang**2
 GePol: Cavity volume                                =    291.390 Ang**3
 Leave Link  301 at Tue Oct 27 23:27:47 2020, MaxMem=  7784628224 cpu:               1.3 elap:               0.2
 (Enter /gpfs/loomis/apps/avx/software/Gaussian/16-C.01_AVX/g16/l302.exe)
 NPDir=0 NMtPBC=     1 NCelOv=     1 NCel=       1 NClECP=     1 NCelD=      1
         NCelK=      1 NCelE2=     1 NClLst=     1 CellRange=     0.0.
 One-electron integrals computed using PRISM.
 NBasis=   273 RedAO= T EigKep=  3.07D-04  NBF=   273
 NBsUse=   273 1.00D-06 EigRej= -1.00D+00 NBFU=   273
 Precomputing XC quadrature grid using
 IXCGrd= 4 IRadAn=           5 IRanWt=          -1 IRanGd=           0 AccXCQ= 0.00D+00.
 Generated NRdTot=       0 NPtTot=           0 NUsed=           0 NTot=          32
 NSgBfM=   288   288   288   288   288 MxSgAt=    25 MxSgA2=    25.
 Leave Link  302 at Tue Oct 27 23:27:47 2020, MaxMem=  7784628224 cpu:               2.9 elap:               0.3
 (Enter /gpfs/loomis/apps/avx/software/Gaussian/16-C.01_AVX/g16/l303.exe)
 DipDrv:  MaxL=1.
 Leave Link  303 at Tue Oct 27 23:27:48 2020, MaxMem=  7784628224 cpu:               0.6 elap:               0.1
 (Enter /gpfs/loomis/apps/avx/software/Gaussian/16-C.01_AVX/g16/l401.exe)
 ExpMin= 1.22D-01 ExpMax= 1.11D+05 ExpMxC= 1.07D+03 IAcc=3 IRadAn=         5 AccDes= 0.00D+00
 Harris functional with IExCor= 4639 and IRadAn=       5 diagonalized for initial guess.
 HarFok:  IExCor= 4639 AccDes= 0.00D+00 IRadAn=         5 IDoV= 1 UseB2=F ITyADJ=14
 ICtDFT=  3500011 ScaDFX=  1.000000  1.000000  1.000000  1.000000
 FoFCou: FMM=F IPFlag=           0 FMFlag=      100000 FMFlg1=           0
         NFxFlg=           0 DoJE=T BraDBF=F KetDBF=T FulRan=T
         wScrn=  0.000000 ICntrl=       500 IOpCl=  0 I1Cent=   200000004 NGrid=           0
         NMat0=    1 NMatS0=      1 NMatT0=    0 NMatD0=    1 NMtDS0=    0 NMtDT0=    0
 Symmetry not used in FoFCou.
 Harris En= -994.395365081110    
 JPrj=0 DoOrth=F DoCkMO=F.
 Leave Link  401 at Tue Oct 27 23:27:49 2020, MaxMem=  7784628224 cpu:              14.7 elap:               1.5
 (Enter /gpfs/loomis/apps/avx/software/Gaussian/16-C.01_AVX/g16/l502.exe)
 Two-electron integral symmetry not used.
 Closed shell SCF:
 Using DIIS extrapolation, IDIIS=  1040.
 NGot=  7784628224 LenX=  7784455381 LenY=  7784371419
 Requested convergence on RMS density matrix=1.00D-08 within 128 cycles.
 Requested convergence on MAX density matrix=1.00D-06.
 Requested convergence on             energy=1.00D-06.
 No special actions if energy rises.
 Fock matrices will be formed incrementally for  20 cycles.

 Cycle   1  Pass 1  IDiag  1:
 FoFJK:  IHMeth= 1 ICntrl=       0 DoSepK=T KAlg= 0 I1Cent=           0 FoldK=F
 IRaf=         1 NMat=       1 IRICut=       1 DoRegI=T DoRafI=F ISym2E= 0 IDoP0=0 IntGTp=1.
 FoFCou: FMM=F IPFlag=           0 FMFlag=      100000 FMFlg1=           0
         NFxFlg=           0 DoJE=T BraDBF=F KetDBF=F FulRan=T
         wScrn=  0.000000 ICntrl=       500 IOpCl=  0 I1Cent=           0 NGrid=           0
         NMat0=    1 NMatS0=      1 NMatT0=    0 NMatD0=    1 NMtDS0=    0 NMtDT0=    0
 Symmetry not used in FoFCou.
 Inv3:  Mode=1 IEnd=    14454075.
 Iteration    1 A*A^-1 deviation from unit magnitude is 5.44D-15 for   2172.
 Iteration    1 A*A^-1 deviation from orthogonality  is 2.23D-15 for   1142    598.
 Iteration    1 A^-1*A deviation from unit magnitude is 5.88D-15 for   2172.
 Iteration    1 A^-1*A deviation from orthogonality  is 2.47D-15 for   2193   2084.
 E= -1028.51033644488    
 DIIS: error= 4.04D-02 at cycle   1 NSaved=   1.
 NSaved= 1 IEnMin= 1 EnMin= -1028.51033644488     IErMin= 1 ErrMin= 4.04D-02
 ErrMax= 4.04D-02  0.00D+00 EMaxC= 1.00D-01 BMatC= 3.91D-01 BMatP= 3.91D-01
 IDIUse=3 WtCom= 5.96D-01 WtEn= 4.04D-01
 Coeff-Com:  0.100D+01
 Coeff-En:   0.100D+01
 Coeff:      0.100D+01
 Gap=     0.308 Goal=   None    Shift=    0.000
 GapD=    0.308 DampG=1.000 DampE=0.500 DampFc=0.5000 IDamp=-1.
 Damping current iteration by 5.00D-01
 RMSDP=3.63D-03 MaxDP=2.45D-01              OVMax= 2.07D-01

 Cycle   2  Pass 1  IDiag  1:
 RMSU=  1.81D-03    CP:  9.95D-01
 E= -1028.62998388436     Delta-E=       -0.119647439483 Rises=F Damp=T
 DIIS: error= 1.26D-02 at cycle   2 NSaved=   2.
 NSaved= 2 IEnMin= 2 EnMin= -1028.62998388436     IErMin= 2 ErrMin= 1.26D-02
 ErrMax= 1.26D-02  0.00D+00 EMaxC= 1.00D-01 BMatC= 5.83D-02 BMatP= 3.91D-01
 IDIUse=3 WtCom= 8.74D-01 WtEn= 1.26D-01
 Coeff-Com: -0.289D+00 0.129D+01
 Coeff-En:   0.000D+00 0.100D+01
 Coeff:     -0.253D+00 0.125D+01
 Gap=     0.278 Goal=   None    Shift=    0.000
 RMSDP=1.16D-03 MaxDP=2.58D-02 DE=-1.20D-01 OVMax= 1.45D-01

 Cycle   3  Pass 1  IDiag  1:
 RMSU=  1.13D-03    CP:  9.93D-01  1.16D+00
 E= -1028.73800957912     Delta-E=       -0.108025694762 Rises=F Damp=F
 DIIS: error= 6.37D-03 at cycle   3 NSaved=   3.
 NSaved= 3 IEnMin= 3 EnMin= -1028.73800957912     IErMin= 3 ErrMin= 6.37D-03
 ErrMax= 6.37D-03  0.00D+00 EMaxC= 1.00D-01 BMatC= 1.53D-02 BMatP= 5.83D-02
 IDIUse=3 WtCom= 9.36D-01 WtEn= 6.37D-02
 Coeff-Com: -0.205D+00 0.501D+00 0.704D+00
 Coeff-En:   0.000D+00 0.000D+00 0.100D+01
 Coeff:     -0.192D+00 0.469D+00 0.723D+00
 Gap=     0.237 Goal=   None    Shift=    0.000
 RMSDP=5.54D-04 MaxDP=1.80D-02 DE=-1.08D-01 OVMax= 4.65D-02

 Cycle   4  Pass 1  IDiag  1:
 RMSU=  4.37D-04    CP:  9.91D-01  1.32D+00  8.40D-01
 E= -1028.75306399232     Delta-E=       -0.015054413195 Rises=F Damp=F
 DIIS: error= 2.07D-03 at cycle   4 NSaved=   4.
 NSaved= 4 IEnMin= 4 EnMin= -1028.75306399232     IErMin= 4 ErrMin= 2.07D-03
 ErrMax= 2.07D-03  0.00D+00 EMaxC= 1.00D-01 BMatC= 1.88D-03 BMatP= 1.53D-02
 IDIUse=3 WtCom= 9.79D-01 WtEn= 2.07D-02
 Coeff-Com: -0.721D-01 0.143D+00 0.341D+00 0.589D+00
 Coeff-En:   0.000D+00 0.000D+00 0.000D+00 0.100D+01
 Coeff:     -0.706D-01 0.140D+00 0.334D+00 0.597D+00
 Gap=     0.238 Goal=   None    Shift=    0.000
 RMSDP=1.75D-04 MaxDP=9.66D-03 DE=-1.51D-02 OVMax= 1.36D-02

 Cycle   5  Pass 1  IDiag  1:
 RMSU=  1.12D-04    CP:  9.91D-01  1.33D+00  9.15D-01  7.64D-01
 E= -1028.75511563347     Delta-E=       -0.002051641153 Rises=F Damp=F
 DIIS: error= 5.09D-04 at cycle   5 NSaved=   5.
 NSaved= 5 IEnMin= 5 EnMin= -1028.75511563347     IErMin= 5 ErrMin= 5.09D-04
 ErrMax= 5.09D-04  0.00D+00 EMaxC= 1.00D-01 BMatC= 6.20D-05 BMatP= 1.88D-03
 IDIUse=3 WtCom= 9.95D-01 WtEn= 5.09D-03
 Coeff-Com: -0.929D-03-0.457D-02 0.287D-01 0.158D+00 0.819D+00
 Coeff-En:   0.000D+00 0.000D+00 0.000D+00 0.000D+00 0.100D+01
 Coeff:     -0.924D-03-0.454D-02 0.285D-01 0.157D+00 0.820D+00
 Gap=     0.239 Goal=   None    Shift=    0.000
 RMSDP=6.08D-05 MaxDP=1.97D-03 DE=-2.05D-03 OVMax= 6.15D-03

 Cycle   6  Pass 1  IDiag  1:
 RMSU=  3.97D-05    CP:  9.91D-01  1.34D+00  9.31D-01  8.55D-01  1.12D+00
 E= -1028.75525782001     Delta-E=       -0.000142186541 Rises=F Damp=F
 DIIS: error= 2.86D-04 at cycle   6 NSaved=   6.
 NSaved= 6 IEnMin= 6 EnMin= -1028.75525782001     IErMin= 6 ErrMin= 2.86D-04
 ErrMax= 2.86D-04  0.00D+00 EMaxC= 1.00D-01 BMatC= 1.12D-05 BMatP= 6.20D-05
 IDIUse=3 WtCom= 9.97D-01 WtEn= 2.86D-03
 Coeff-Com:  0.176D-01-0.360D-01-0.678D-01-0.823D-01 0.200D+00 0.968D+00
 Coeff-En:   0.000D+00 0.000D+00 0.000D+00 0.000D+00 0.000D+00 0.100D+01
 Coeff:      0.176D-01-0.359D-01-0.676D-01-0.820D-01 0.200D+00 0.968D+00
 Gap=     0.240 Goal=   None    Shift=    0.000
 RMSDP=4.00D-05 MaxDP=1.89D-03 DE=-1.42D-04 OVMax= 5.17D-03

 Cycle   7  Pass 1  IDiag  1:
 RMSU=  2.02D-05    CP:  9.91D-01  1.34D+00  9.45D-01  8.92D-01  1.33D+00
                    CP:  1.31D+00
 E= -1028.75529905327     Delta-E=       -0.000041233257 Rises=F Damp=F
 DIIS: error= 9.17D-05 at cycle   7 NSaved=   7.
 NSaved= 7 IEnMin= 7 EnMin= -1028.75529905327     IErMin= 7 ErrMin= 9.17D-05
 ErrMax= 9.17D-05  0.00D+00 EMaxC= 1.00D-01 BMatC= 3.25D-06 BMatP= 1.12D-05
 IDIUse=1 WtCom= 1.00D+00 WtEn= 0.00D+00
 Coeff-Com:  0.787D-02-0.150D-01-0.316D-01-0.568D-01-0.224D-01 0.460D+00
 Coeff-Com:  0.658D+00
 Coeff:      0.787D-02-0.150D-01-0.316D-01-0.568D-01-0.224D-01 0.460D+00
 Coeff:      0.658D+00
 Gap=     0.240 Goal=   None    Shift=    0.000
 RMSDP=1.39D-05 MaxDP=5.16D-04 DE=-4.12D-05 OVMax= 1.41D-03

 Cycle   8  Pass 1  IDiag  1:
 RMSU=  8.47D-06    CP:  9.91D-01  1.34D+00  9.46D-01  8.99D-01  1.37D+00
                    CP:  1.54D+00  1.08D+00
 E= -1028.75530566139     Delta-E=       -0.000006608122 Rises=F Damp=F
 DIIS: error= 6.27D-05 at cycle   8 NSaved=   8.
 NSaved= 8 IEnMin= 8 EnMin= -1028.75530566139     IErMin= 8 ErrMin= 6.27D-05
 ErrMax= 6.27D-05  0.00D+00 EMaxC= 1.00D-01 BMatC= 3.85D-07 BMatP= 3.25D-06
 IDIUse=1 WtCom= 1.00D+00 WtEn= 0.00D+00
 Coeff-Com: -0.137D-02 0.305D-02 0.630D-02 0.888D-03-0.462D-01-0.711D-01
 Coeff-Com:  0.157D+00 0.951D+00
 Coeff:     -0.137D-02 0.305D-02 0.630D-02 0.888D-03-0.462D-01-0.711D-01
 Coeff:      0.157D+00 0.951D+00
 Gap=     0.240 Goal=   None    Shift=    0.000
 RMSDP=8.19D-06 MaxDP=2.14D-04 DE=-6.61D-06 OVMax= 1.38D-03

 Cycle   9  Pass 1  IDiag  1:
 RMSU=  3.33D-06    CP:  9.91D-01  1.34D+00  9.46D-01  8.99D-01  1.39D+00
                    CP:  1.65D+00  1.34D+00  1.21D+00
 E= -1028.75530754437     Delta-E=       -0.000001882982 Rises=F Damp=F
 DIIS: error= 2.00D-05 at cycle   9 NSaved=   9.
 NSaved= 9 IEnMin= 9 EnMin= -1028.75530754437     IErMin= 9 ErrMin= 2.00D-05
 ErrMax= 2.00D-05  0.00D+00 EMaxC= 1.00D-01 BMatC= 1.36D-07 BMatP= 3.85D-07
 IDIUse=1 WtCom= 1.00D+00 WtEn= 0.00D+00
 Coeff-Com: -0.147D-02 0.291D-02 0.673D-02 0.808D-02-0.136D-01-0.951D-01
 Coeff-Com: -0.870D-01 0.365D+00 0.814D+00
 Coeff:     -0.147D-02 0.291D-02 0.673D-02 0.808D-02-0.136D-01-0.951D-01
 Coeff:     -0.870D-01 0.365D+00 0.814D+00
 Gap=     0.240 Goal=   None    Shift=    0.000
 RMSDP=4.22D-06 MaxDP=1.28D-04 DE=-1.88D-06 OVMax= 6.31D-04

 Cycle  10  Pass 1  IDiag  1:
 RMSU=  1.58D-06    CP:  9.91D-01  1.34D+00  9.46D-01  8.99D-01  1.40D+00
                    CP:  1.71D+00  1.43D+00  1.47D+00  1.22D+00
 E= -1028.75530798782     Delta-E=       -0.000000443445 Rises=F Damp=F
 DIIS: error= 9.98D-06 at cycle  10 NSaved=  10.
 NSaved=10 IEnMin=10 EnMin= -1028.75530798782     IErMin=10 ErrMin= 9.98D-06
 ErrMax= 9.98D-06  0.00D+00 EMaxC= 1.00D-01 BMatC= 2.28D-08 BMatP= 1.36D-07
 IDIUse=1 WtCom= 1.00D+00 WtEn= 0.00D+00
 Coeff-Com:  0.564D-04-0.188D-03 0.153D-03 0.149D-02 0.783D-02-0.673D-02
 Coeff-Com: -0.850D-01-0.906D-01 0.274D+00 0.899D+00
 Coeff:      0.564D-04-0.188D-03 0.153D-03 0.149D-02 0.783D-02-0.673D-02
 Coeff:     -0.850D-01-0.906D-01 0.274D+00 0.899D+00
 Gap=     0.240 Goal=   None    Shift=    0.000
 RMSDP=2.07D-06 MaxDP=5.19D-05 DE=-4.43D-07 OVMax= 3.58D-04

 Cycle  11  Pass 1  IDiag  1:
 RMSU=  6.06D-07    CP:  9.91D-01  1.34D+00  9.46D-01  8.99D-01  1.40D+00
                    CP:  1.74D+00  1.46D+00  1.59D+00  1.53D+00  1.21D+00
 E= -1028.75530808692     Delta-E=       -0.000000099103 Rises=F Damp=F
 DIIS: error= 3.89D-06 at cycle  11 NSaved=  11.
 NSaved=11 IEnMin=11 EnMin= -1028.75530808692     IErMin=11 ErrMin= 3.89D-06
 ErrMax= 3.89D-06  0.00D+00 EMaxC= 1.00D-01 BMatC= 4.12D-09 BMatP= 2.28D-08
 IDIUse=1 WtCom= 1.00D+00 WtEn= 0.00D+00
 Coeff-Com:  0.291D-03-0.600D-03-0.107D-02-0.988D-03 0.521D-02 0.145D-01
 Coeff-Com: -0.195D-01-0.781D-01-0.527D-01 0.270D+00 0.863D+00
 Coeff:      0.291D-03-0.600D-03-0.107D-02-0.988D-03 0.521D-02 0.145D-01
 Coeff:     -0.195D-01-0.781D-01-0.527D-01 0.270D+00 0.863D+00
 Gap=     0.240 Goal=   None    Shift=    0.000
 RMSDP=7.64D-07 MaxDP=1.95D-05 DE=-9.91D-08 OVMax= 1.24D-04

 Cycle  12  Pass 1  IDiag  1:
 RMSU=  2.41D-07    CP:  9.91D-01  1.34D+00  9.46D-01  8.99D-01  1.40D+00
                    CP:  1.74D+00  1.47D+00  1.63D+00  1.64D+00  1.45D+00
                    CP:  1.19D+00
 E= -1028.75530810052     Delta-E=       -0.000000013604 Rises=F Damp=F
 DIIS: error= 1.32D-06 at cycle  12 NSaved=  12.
 NSaved=12 IEnMin=12 EnMin= -1028.75530810052     IErMin=12 ErrMin= 1.32D-06
 ErrMax= 1.32D-06  0.00D+00 EMaxC= 1.00D-01 BMatC= 6.41D-10 BMatP= 4.12D-09
 IDIUse=1 WtCom= 1.00D+00 WtEn= 0.00D+00
 Coeff-Com:  0.119D-03-0.231D-03-0.491D-03-0.840D-03 0.686D-03 0.797D-02
 Coeff-Com:  0.713D-02-0.107D-01-0.771D-01-0.723D-01 0.296D+00 0.849D+00
 Coeff:      0.119D-03-0.231D-03-0.491D-03-0.840D-03 0.686D-03 0.797D-02
 Coeff:      0.713D-02-0.107D-01-0.771D-01-0.723D-01 0.296D+00 0.849D+00
 Gap=     0.240 Goal=   None    Shift=    0.000
 RMSDP=3.17D-07 MaxDP=8.52D-06 DE=-1.36D-08 OVMax= 5.01D-05

 Cycle  13  Pass 1  IDiag  1:
 RMSU=  9.02D-08    CP:  9.91D-01  1.34D+00  9.46D-01  8.99D-01  1.41D+00
                    CP:  1.75D+00  1.47D+00  1.65D+00  1.69D+00  1.55D+00
                    CP:  1.41D+00  1.09D+00
 E= -1028.75530810270     Delta-E=       -0.000000002181 Rises=F Damp=F
 DIIS: error= 4.24D-07 at cycle  13 NSaved=  13.
 NSaved=13 IEnMin=13 EnMin= -1028.75530810270     IErMin=13 ErrMin= 4.24D-07
 ErrMax= 4.24D-07  0.00D+00 EMaxC= 1.00D-01 BMatC= 5.64D-11 BMatP= 6.41D-10
 IDIUse=1 WtCom= 1.00D+00 WtEn= 0.00D+00
 Coeff-Com: -0.164D-04 0.352D-04 0.572D-04-0.249D-04-0.351D-03-0.796D-04
 Coeff-Com:  0.255D-02 0.746D-02-0.704D-02-0.422D-01-0.692D-01 0.152D+00
 Coeff-Com:  0.956D+00
 Coeff:     -0.164D-04 0.352D-04 0.572D-04-0.249D-04-0.351D-03-0.796D-04
 Coeff:      0.255D-02 0.746D-02-0.704D-02-0.422D-01-0.692D-01 0.152D+00
 Coeff:      0.956D+00
 Gap=     0.240 Goal=   None    Shift=    0.000
 RMSDP=9.39D-08 MaxDP=2.01D-06 DE=-2.18D-09 OVMax= 1.21D-05

 Cycle  14  Pass 1  IDiag  1:
 RMSU=  3.23D-08    CP:  9.91D-01  1.34D+00  9.46D-01  8.99D-01  1.41D+00
                    CP:  1.75D+00  1.47D+00  1.65D+00  1.70D+00  1.57D+00
                    CP:  1.48D+00  1.26D+00  1.20D+00
 E= -1028.75530810288     Delta-E=       -0.000000000179 Rises=F Damp=F
 DIIS: error= 1.35D-07 at cycle  14 NSaved=  14.
 NSaved=14 IEnMin=14 EnMin= -1028.75530810288     IErMin=14 ErrMin= 1.35D-07
 ErrMax= 1.35D-07  0.00D+00 EMaxC= 1.00D-01 BMatC= 5.05D-12 BMatP= 5.64D-11
 IDIUse=1 WtCom= 1.00D+00 WtEn= 0.00D+00
 Coeff-Com: -0.115D-04 0.228D-04 0.474D-04 0.562D-04-0.122D-03-0.610D-03
 Coeff-Com: -0.269D-03 0.256D-02 0.525D-02-0.592D-04-0.353D-01-0.421D-01
 Coeff-Com:  0.212D+00 0.859D+00
 Coeff:     -0.115D-04 0.228D-04 0.474D-04 0.562D-04-0.122D-03-0.610D-03
 Coeff:     -0.269D-03 0.256D-02 0.525D-02-0.592D-04-0.353D-01-0.421D-01
 Coeff:      0.212D+00 0.859D+00
 Gap=     0.240 Goal=   None    Shift=    0.000
 RMSDP=1.83D-08 MaxDP=3.99D-07 DE=-1.79D-10 OVMax= 2.31D-06

 Cycle  15  Pass 1  IDiag  1:
 RMSU=  1.11D-08    CP:  9.91D-01  1.34D+00  9.46D-01  8.99D-01  1.41D+00
                    CP:  1.75D+00  1.47D+00  1.65D+00  1.70D+00  1.57D+00
                    CP:  1.48D+00  1.28D+00  1.32D+00  1.16D+00
 E= -1028.75530810290     Delta-E=       -0.000000000021 Rises=F Damp=F
 DIIS: error= 7.96D-08 at cycle  15 NSaved=  15.
 NSaved=15 IEnMin=15 EnMin= -1028.75530810290     IErMin=15 ErrMin= 7.96D-08
 ErrMax= 7.96D-08  0.00D+00 EMaxC= 1.00D-01 BMatC= 8.82D-13 BMatP= 5.05D-12
 IDIUse=1 WtCom= 1.00D+00 WtEn= 0.00D+00
 Coeff-Com: -0.227D-05 0.406D-05 0.109D-04 0.301D-04 0.168D-05-0.264D-03
 Coeff-Com: -0.543D-03-0.321D-03 0.288D-02 0.667D-02-0.137D-02-0.469D-01
 Coeff-Com: -0.869D-01 0.239D+00 0.888D+00
 Coeff:     -0.227D-05 0.406D-05 0.109D-04 0.301D-04 0.168D-05-0.264D-03
 Coeff:     -0.543D-03-0.321D-03 0.288D-02 0.667D-02-0.137D-02-0.469D-01
 Coeff:     -0.869D-01 0.239D+00 0.888D+00
 Gap=     0.240 Goal=   None    Shift=    0.000
 RMSDP=1.16D-08 MaxDP=2.94D-07 DE=-2.07D-11 OVMax= 1.61D-06

 Cycle  16  Pass 1  IDiag  1:
 RMSU=  4.35D-09    CP:  9.91D-01  1.34D+00  9.46D-01  8.99D-01  1.41D+00
                    CP:  1.75D+00  1.47D+00  1.65D+00  1.70D+00  1.58D+00
                    CP:  1.49D+00  1.30D+00  1.38D+00  1.33D+00  1.14D+00
 E= -1028.75530810291     Delta-E=       -0.000000000004 Rises=F Damp=F
 DIIS: error= 2.46D-08 at cycle  16 NSaved=  16.
 NSaved=16 IEnMin=16 EnMin= -1028.75530810291     IErMin=16 ErrMin= 2.46D-08
 ErrMax= 2.46D-08  0.00D+00 EMaxC= 1.00D-01 BMatC= 1.15D-13 BMatP= 8.82D-13
 IDIUse=1 WtCom= 1.00D+00 WtEn= 0.00D+00
 Coeff-Com:  0.880D-06-0.182D-05-0.316D-05-0.627D-06 0.114D-04 0.129D-04
 Coeff-Com: -0.818D-04-0.312D-03 0.233D-04 0.138D-02 0.397D-02-0.562D-02
 Coeff-Com: -0.344D-01-0.669D-01 0.207D+00 0.895D+00
 Coeff:      0.880D-06-0.182D-05-0.316D-05-0.627D-06 0.114D-04 0.129D-04
 Coeff:     -0.818D-04-0.312D-03 0.233D-04 0.138D-02 0.397D-02-0.562D-02
 Coeff:     -0.344D-01-0.669D-01 0.207D+00 0.895D+00
 Gap=     0.240 Goal=   None    Shift=    0.000
 RMSDP=3.03D-09 MaxDP=1.07D-07 DE=-4.09D-12 OVMax= 3.54D-07

 Error on total polarization charges =  0.00862
 SCF Done:  E(RwB97XD) =  -1028.75530810     A.U. after   16 cycles
            NFock= 16  Conv=0.30D-08     -V/T= 2.0045
 KE= 1.024182570949D+03 PE=-4.616067456643D+03 EE= 1.461118777176D+03
 Leave Link  502 at Tue Oct 27 23:29:17 2020, MaxMem=  7784628224 cpu:             876.7 elap:              88.4
 (Enter /gpfs/loomis/apps/avx/software/Gaussian/16-C.01_AVX/g16/l601.exe)
 Copying SCF densities to generalized density rwf, IOpCl= 0 IROHF=0.

 **********************************************************************

            Population analysis using the SCF Density.

 **********************************************************************

 Alpha  occ. eigenvalues --  -89.10442 -19.20630 -14.51120 -10.41525 -10.38074
 Alpha  occ. eigenvalues --  -10.36397 -10.35669 -10.33446 -10.33147 -10.32656
 Alpha  occ. eigenvalues --  -10.32498 -10.31526 -10.30890 -10.30585 -10.29335
 Alpha  occ. eigenvalues --  -10.28533  -8.12506  -6.07369  -6.07010  -6.06522
 Alpha  occ. eigenvalues --   -1.14252  -1.09159  -0.98947  -0.95999  -0.93485
 Alpha  occ. eigenvalues --   -0.89292  -0.87148  -0.83719  -0.81310  -0.76931
 Alpha  occ. eigenvalues --   -0.74677  -0.72243  -0.69082  -0.67950  -0.65813
 Alpha  occ. eigenvalues --   -0.60907  -0.59727  -0.56804  -0.56171  -0.56022
 Alpha  occ. eigenvalues --   -0.55035  -0.53847  -0.53088  -0.50451  -0.49109
 Alpha  occ. eigenvalues --   -0.48846  -0.48764  -0.46994  -0.45452  -0.44911
 Alpha  occ. eigenvalues --   -0.44136  -0.43153  -0.42484  -0.40116  -0.36794
 Alpha  occ. eigenvalues --   -0.33731  -0.31535  -0.31525  -0.25968
 Alpha virt. eigenvalues --   -0.01922   0.03603   0.05394   0.06362   0.09327
 Alpha virt. eigenvalues --    0.10627   0.14111   0.14782   0.16592   0.17410
 Alpha virt. eigenvalues --    0.18776   0.20132   0.21078   0.21284   0.23104
 Alpha virt. eigenvalues --    0.23520   0.24362   0.25694   0.28204   0.29678
 Alpha virt. eigenvalues --    0.30926   0.33958   0.35507   0.35691   0.36592
 Alpha virt. eigenvalues --    0.37884   0.39326   0.40069   0.41674   0.44364
 Alpha virt. eigenvalues --    0.46839   0.48271   0.50833   0.51357   0.51442
 Alpha virt. eigenvalues --    0.52753   0.52811   0.53059   0.54348   0.55360
 Alpha virt. eigenvalues --    0.56344   0.56470   0.56481   0.56964   0.57734
 Alpha virt. eigenvalues --    0.58089   0.58738   0.59501   0.59572   0.60201
 Alpha virt. eigenvalues --    0.61066   0.61490   0.61936   0.62871   0.62936
 Alpha virt. eigenvalues --    0.64796   0.66591   0.67041   0.68667   0.69237
 Alpha virt. eigenvalues --    0.70448   0.70802   0.71963   0.72519   0.73026
 Alpha virt. eigenvalues --    0.74329   0.75256   0.75923   0.77002   0.78268
 Alpha virt. eigenvalues --    0.78661   0.79831   0.81078   0.81596   0.83632
 Alpha virt. eigenvalues --    0.84418   0.88687   0.89694   0.91634   0.92620
 Alpha virt. eigenvalues --    0.94057   0.94384   0.96011   0.97234   0.97351
 Alpha virt. eigenvalues --    0.98535   0.99225   1.00456   1.00938   1.01314
 Alpha virt. eigenvalues --    1.02683   1.05249   1.05538   1.06269   1.07313
 Alpha virt. eigenvalues --    1.08361   1.09507   1.10021   1.10795   1.11131
 Alpha virt. eigenvalues --    1.12516   1.13292   1.13889   1.14668   1.15046
 Alpha virt. eigenvalues --    1.17036   1.19499   1.20038   1.22776   1.24115
 Alpha virt. eigenvalues --    1.26221   1.27753   1.31908   1.33259   1.34318
 Alpha virt. eigenvalues --    1.34854   1.36949   1.38463   1.40853   1.45726
 Alpha virt. eigenvalues --    1.49043   1.49435   1.53127   1.54591   1.54926
 Alpha virt. eigenvalues --    1.56358   1.57290   1.57449   1.57809   1.59385
 Alpha virt. eigenvalues --    1.60496   1.61939   1.62556   1.65382   1.67604
 Alpha virt. eigenvalues --    1.68423   1.70075   1.71040   1.71509   1.71971
 Alpha virt. eigenvalues --    1.72154   1.73428   1.73550   1.74386   1.75047
 Alpha virt. eigenvalues --    1.78257   1.79213   1.80369   1.81699   1.81815
 Alpha virt. eigenvalues --    1.83148   1.84582   1.84648   1.85329   1.86067
 Alpha virt. eigenvalues --    1.87359   1.89533   1.91051   1.91611   1.92076
 Alpha virt. eigenvalues --    1.93851   1.94385   1.95613   1.96392   1.98258
 Alpha virt. eigenvalues --    1.99969   2.00263   2.01871   2.03794   2.04608
 Alpha virt. eigenvalues --    2.06876   2.07753   2.10069   2.10281   2.15799
 Alpha virt. eigenvalues --    2.17354   2.17356   2.22189   2.23867   2.25718
 Alpha virt. eigenvalues --    2.26954   2.29276   2.34008   2.37657   2.39059
 Alpha virt. eigenvalues --    2.41679   2.42546   2.46320   2.48507   2.49802
 Alpha virt. eigenvalues --    2.51884   2.54824   2.59588   2.61146   2.63197
 Alpha virt. eigenvalues --    2.68183   2.70543   2.73979   2.76442   2.79422
 Alpha virt. eigenvalues --    2.81534   2.81990   2.84149   2.87611   2.90992
 Alpha virt. eigenvalues --    2.92881   3.02102   3.16957   3.30497   3.49237
 Alpha virt. eigenvalues --    3.51526   3.58034   3.67351   3.82278
          Condensed to atoms (all electrons):
               1          2          3          4          5          6
     1  C    4.734522   0.488976   0.008932  -0.052893  -0.011757   0.507936
     2  C    0.488976   5.352226   0.276595  -0.055374  -0.073477  -0.003910
     3  C    0.008932   0.276595   4.920384   0.517199  -0.000611  -0.067857
     4  C   -0.052893  -0.055374   0.517199   4.789893   0.516259  -0.011406
     5  C   -0.011757  -0.073477  -0.000611   0.516259   4.728785   0.499253
     6  C    0.507936  -0.003910  -0.067857  -0.011406   0.499253   4.734978
     7  H    0.404300  -0.039319   0.009242  -0.000640   0.008095  -0.039144
     8  H   -0.000573   0.010688  -0.027867   0.395096  -0.040802   0.007378
     9  H    0.008837  -0.000510   0.008283  -0.038065   0.405475  -0.044005
    10  H   -0.042662   0.009440  -0.000506   0.008432  -0.042181   0.407740
    11  N    0.003592  -0.032511   0.380720  -0.054039   0.002126   0.000351
    12  S   -0.069925   0.333850  -0.131325   0.004400   0.000146   0.004405
    13  C   -0.000250  -0.000438   0.015366  -0.000258   0.000013   0.000000
    14  C   -0.000009   0.000070   0.000495   0.000008  -0.000000  -0.000000
    15  C    0.000004  -0.000189  -0.000011   0.000019  -0.000001   0.000000
    16  C    0.000000  -0.000005   0.000003  -0.000000   0.000000   0.000000
    17  H   -0.000009   0.000173   0.000004   0.000001   0.000000   0.000000
    18  C    0.000000   0.000010  -0.000035  -0.000000  -0.000000  -0.000000
    19  C   -0.000000   0.000000   0.000002   0.000000  -0.000000   0.000000
    20  H   -0.000000  -0.000000  -0.000000   0.000000  -0.000000  -0.000000
    21  H   -0.000000   0.000000  -0.000001  -0.000000  -0.000000   0.000000
    22  H    0.000000  -0.000000  -0.000000  -0.000000   0.000000  -0.000000
    23  C    0.003351  -0.050216  -0.103605   0.002696   0.000347  -0.000351
    24  O    0.000002  -0.000191  -0.000348   0.000050   0.000001  -0.000000
    25  H    0.000259   0.014258  -0.046466  -0.010213  -0.000225  -0.000016
               7          8          9         10         11         12
     1  C    0.404300  -0.000573   0.008837  -0.042662   0.003592  -0.069925
     2  C   -0.039319   0.010688  -0.000510   0.009440  -0.032511   0.333850
     3  C    0.009242  -0.027867   0.008283  -0.000506   0.380720  -0.131325
     4  C   -0.000640   0.395096  -0.038065   0.008432  -0.054039   0.004400
     5  C    0.008095  -0.040802   0.405475  -0.042181   0.002126   0.000146
     6  C   -0.039144   0.007378  -0.044005   0.407740   0.000351   0.004405
     7  H    0.648559   0.000027  -0.000147  -0.011192  -0.000091  -0.007718
     8  H    0.000027   0.638137  -0.011998  -0.000107  -0.004628  -0.000242
     9  H   -0.000147  -0.011998   0.655605  -0.012107  -0.000099   0.000020
    10  H   -0.011192  -0.000107  -0.012107   0.655213   0.000005  -0.000149
    11  N   -0.000091  -0.004628  -0.000099   0.000005   5.852596  -0.046219
    12  S   -0.007718  -0.000242   0.000020  -0.000149  -0.046219  15.452455
    13  C    0.000001   0.000035  -0.000000  -0.000000  -0.024775  -0.070956
    14  C    0.000001   0.000001   0.000000  -0.000000   0.003826  -0.010106
    15  C   -0.000000  -0.000005   0.000000   0.000000  -0.007083   0.005138
    16  C    0.000000  -0.000000  -0.000000  -0.000000  -0.000080   0.000246
    17  H    0.000001   0.000000   0.000000  -0.000000   0.000255   0.007919
    18  C    0.000000  -0.000000   0.000000  -0.000000  -0.000541  -0.000156
    19  C   -0.000000   0.000000  -0.000000   0.000000   0.000024   0.000020
    20  H    0.000000  -0.000000   0.000000   0.000000   0.000001   0.000006
    21  H   -0.000000   0.000000  -0.000000   0.000000   0.000007   0.000004
    22  H    0.000000  -0.000000  -0.000000  -0.000000  -0.000000  -0.000000
    23  C    0.000238  -0.000621   0.000006   0.000005   0.512919   0.311363
    24  O    0.000000  -0.000149   0.000000  -0.000000  -0.037405  -0.000066
    25  H    0.000007   0.000785  -0.000011  -0.000000   0.379833   0.006641
              13         14         15         16         17         18
     1  C   -0.000250  -0.000009   0.000004   0.000000  -0.000009   0.000000
     2  C   -0.000438   0.000070  -0.000189  -0.000005   0.000173   0.000010
     3  C    0.015366   0.000495  -0.000011   0.000003   0.000004  -0.000035
     4  C   -0.000258   0.000008   0.000019  -0.000000   0.000001  -0.000000
     5  C    0.000013  -0.000000  -0.000001   0.000000   0.000000  -0.000000
     6  C    0.000000  -0.000000   0.000000   0.000000   0.000000  -0.000000
     7  H    0.000001   0.000001  -0.000000   0.000000   0.000001   0.000000
     8  H    0.000035   0.000001  -0.000005  -0.000000   0.000000  -0.000000
     9  H   -0.000000   0.000000   0.000000  -0.000000   0.000000   0.000000
    10  H   -0.000000  -0.000000   0.000000  -0.000000  -0.000000  -0.000000
    11  N   -0.024775   0.003826  -0.007083  -0.000080   0.000255  -0.000541
    12  S   -0.070956  -0.010106   0.005138   0.000246   0.007919  -0.000156
    13  C    5.499717   0.422586   0.161698  -0.004990  -0.041162  -0.041113
    14  C    0.422586   4.874763   0.009783   0.538864   0.398497  -0.063269
    15  C    0.161698   0.009783   4.734692  -0.054556   0.005925   0.453638
    16  C   -0.004990   0.538864  -0.054556   4.762997  -0.030853  -0.018076
    17  H   -0.041162   0.398497   0.005925  -0.030853   0.674798  -0.000903
    18  C   -0.041113  -0.063269   0.453638  -0.018076  -0.000903   4.919897
    19  C   -0.053569  -0.018316  -0.003303   0.475887   0.008174   0.496238
    20  H    0.009142  -0.036535  -0.000154   0.400137  -0.011899   0.008256
    21  H    0.015939  -0.000646  -0.024953   0.007675   0.000054   0.371650
    22  H   -0.001756   0.009873   0.008557  -0.046427  -0.000202  -0.039524
    23  C    0.349882  -0.097239  -0.068047   0.006206  -0.021688   0.011213
    24  O   -0.101911   0.006596   0.668071  -0.000187  -0.000076  -0.066834
    25  H   -0.052835  -0.000963  -0.006191   0.000071  -0.000098   0.003792
              19         20         21         22         23         24
     1  C   -0.000000  -0.000000  -0.000000   0.000000   0.003351   0.000002
     2  C    0.000000  -0.000000   0.000000  -0.000000  -0.050216  -0.000191
     3  C    0.000002  -0.000000  -0.000001  -0.000000  -0.103605  -0.000348
     4  C    0.000000   0.000000  -0.000000  -0.000000   0.002696   0.000050
     5  C   -0.000000  -0.000000  -0.000000   0.000000   0.000347   0.000001
     6  C    0.000000  -0.000000   0.000000  -0.000000  -0.000351  -0.000000
     7  H   -0.000000   0.000000  -0.000000   0.000000   0.000238   0.000000
     8  H    0.000000  -0.000000   0.000000  -0.000000  -0.000621  -0.000149
     9  H   -0.000000   0.000000  -0.000000  -0.000000   0.000006   0.000000
    10  H    0.000000   0.000000   0.000000  -0.000000   0.000005  -0.000000
    11  N    0.000024   0.000001   0.000007  -0.000000   0.512919  -0.037405
    12  S    0.000020   0.000006   0.000004  -0.000000   0.311363  -0.000066
    13  C   -0.053569   0.009142   0.015939  -0.001756   0.349882  -0.101911
    14  C   -0.018316  -0.036535  -0.000646   0.009873  -0.097239   0.006596
    15  C   -0.003303  -0.000154  -0.024953   0.008557  -0.068047   0.668071
    16  C    0.475887   0.400137   0.007675  -0.046427   0.006206  -0.000187
    17  H    0.008174  -0.011899   0.000054  -0.000202  -0.021688  -0.000076
    18  C    0.496238   0.008256   0.371650  -0.039524   0.011213  -0.066834
    19  C    4.749552  -0.046954  -0.047132   0.402861   0.000359   0.004465
    20  H   -0.046954   0.688669  -0.000158  -0.012572  -0.000399   0.000001
    21  H   -0.047132  -0.000158   0.683020  -0.012873  -0.000499   0.005291
    22  H    0.402861  -0.012572  -0.012873   0.676910   0.000007  -0.000074
    23  C    0.000359  -0.000399  -0.000499   0.000007   5.113107  -0.015679
    24  O    0.004465   0.000001   0.005291  -0.000074  -0.015679   7.854245
    25  H   -0.000362  -0.000000  -0.000001   0.000005   0.035253   0.085254
              25
     1  C    0.000259
     2  C    0.014258
     3  C   -0.046466
     4  C   -0.010213
     5  C   -0.000225
     6  C   -0.000016
     7  H    0.000007
     8  H    0.000785
     9  H   -0.000011
    10  H   -0.000000
    11  N    0.379833
    12  S    0.006641
    13  C   -0.052835
    14  C   -0.000963
    15  C   -0.006191
    16  C    0.000071
    17  H   -0.000098
    18  C    0.003792
    19  C   -0.000362
    20  H   -0.000000
    21  H   -0.000001
    22  H    0.000005
    23  C    0.035253
    24  O    0.085254
    25  H    0.623711
 Mulliken charges:
               1
     1  C    0.017368
     2  C   -0.230145
     3  C    0.241408
     4  C   -0.011163
     5  C    0.008555
     6  C    0.004649
     7  H    0.027780
     8  H    0.034846
     9  H    0.028716
    10  H    0.028070
    11  N    0.071215
    12  S    0.210250
    13  C   -0.080367
    14  C   -0.038279
    15  C    0.116969
    16  C   -0.036913
    17  H    0.011087
    18  C   -0.034242
    19  C    0.032055
    20  H    0.002460
    21  H    0.002623
    22  H    0.015214
    23  C    0.011390
    24  O   -0.401059
    25  H   -0.032487
 Sum of Mulliken charges =  -0.00000
 Mulliken charges with hydrogens summed into heavy atoms:
               1
     1  C    0.045148
     2  C   -0.230145
     3  C    0.241408
     4  C    0.023683
     5  C    0.037271
     6  C    0.032718
    11  N    0.038728
    12  S    0.210250
    13  C   -0.080367
    14  C   -0.027192
    15  C    0.116969
    16  C   -0.034454
    18  C   -0.031619
    19  C    0.047269
    23  C    0.011390
    24  O   -0.401059
 Electronic spatial extent (au):  <R**2>=           4326.6773
 Charge=             -0.0000 electrons
 Dipole moment (field-independent basis, Debye):
    X=              1.6121    Y=             -5.8376    Z=             -0.0001  Tot=              6.0561
 Quadrupole moment (field-independent basis, Debye-Ang):
   XX=            -82.2772   YY=            -94.9985   ZZ=           -103.9675
   XY=             -6.8217   XZ=             -0.0001   YZ=             -0.0001
 Traceless Quadrupole moment (field-independent basis, Debye-Ang):
   XX=             11.4706   YY=             -1.2508   ZZ=            -10.2198
   XY=             -6.8217   XZ=             -0.0001   YZ=             -0.0001
 Octapole moment (field-independent basis, Debye-Ang**2):
  XXX=             35.9222  YYY=            -61.2089  ZZZ=             -0.0000  XYY=              2.2378
  XXY=             -9.4210  XXZ=             -0.0001  XZZ=              2.5682  YZZ=              2.3694
  YYZ=             -0.0002  XYZ=             -0.0005
 Hexadecapole moment (field-independent basis, Debye-Ang**3):
 XXXX=          -2598.8641 YYYY=          -2652.8677 ZZZZ=           -112.8312 XXXY=            813.2354
 XXXZ=              0.0099 YYYX=            775.0928 YYYZ=             -0.0150 ZZZX=              0.0138
 ZZZY=             -0.0175 XXYY=           -844.6616 XXZZ=           -572.2683 YYZZ=           -544.4891
 XXYZ=             -0.0040 YYXZ=              0.0019 ZZXY=            359.3653
 N-N= 1.102010800414D+03 E-N=-4.616067455654D+03  KE= 1.024182570949D+03
 No NMR shielding tensors so no spin-rotation constants.
 Leave Link  601 at Tue Oct 27 23:29:18 2020, MaxMem=  7784628224 cpu:               3.8 elap:               0.5
 (Enter /gpfs/loomis/apps/avx/software/Gaussian/16-C.01_AVX/g16/l701.exe)
 ... and contract with generalized density number  0.
 Compute integral first derivatives.
 R6Disp: Adding Grimme-D2 dispersion energy 1st derivatives to the gradient.
 D1PCM: PCM CHGder 1st derivatives, ID1Alg=3 FixD1E=F DoIter=F DoCFld=F I1PDM=0.
 GePol: Maximum number of non-zero 1st derivatives   =     260
 Leave Link  701 at Tue Oct 27 23:29:20 2020, MaxMem=  7784628224 cpu:              22.7 elap:               2.6
 (Enter /gpfs/loomis/apps/avx/software/Gaussian/16-C.01_AVX/g16/l702.exe)
 L702 exits ... SP integral derivatives will be done elsewhere.
 Leave Link  702 at Tue Oct 27 23:29:21 2020, MaxMem=  7784628224 cpu:               0.2 elap:               0.1
 (Enter /gpfs/loomis/apps/avx/software/Gaussian/16-C.01_AVX/g16/l703.exe)
 Integral derivatives from FoFJK, PRISM(SPDF).
 Compute integral first derivatives, UseDBF=F ICtDFT=           0.
 Calling FoFJK, ICntrl=      2127 FMM=F ISym2X=0 I1Cent= 0 IOpClX= 0 NMat=1 NMatS=1 NMatT=0.
 FoFJK:  IHMeth= 1 ICntrl=    2127 DoSepK=T KAlg= 0 I1Cent=           0 FoldK=F
 IRaf=         1 NMat=       1 IRICut=       1 DoRegI=T DoRafI=F ISym2E= 0 IDoP0=0 IntGTp=1.
 FoFCou: FMM=F IPFlag=           0 FMFlag=      100000 FMFlg1=         800
         NFxFlg=           0 DoJE=F BraDBF=F KetDBF=F FulRan=T
         wScrn=  0.000000 ICntrl=      2527 IOpCl=  0 I1Cent=           0 NGrid=           0
         NMat0=    1 NMatS0=      1 NMatT0=    0 NMatD0=    1 NMtDS0=    0 NMtDT0=    0
 Symmetry not used in FoFCou.
 Leave Link  703 at Tue Oct 27 23:29:37 2020, MaxMem=  7784628224 cpu:             137.3 elap:              15.9
 (Enter /gpfs/loomis/apps/avx/software/Gaussian/16-C.01_AVX/g16/l716.exe)
 Dipole        = 6.34249192D-01-2.29667557D+00-3.48432752D-05
 -------------------------------------------------------------------
 Center     Atomic                   Forces (Hartrees/Bohr)
 Number     Number              X              Y              Z
 -------------------------------------------------------------------
      1        6           0.001902941    0.002936774   -0.000000058
      2        6           0.008793297    0.003345541   -0.000000229
      3        6           0.005595326   -0.013519419   -0.000000148
      4        6          -0.001167432    0.002264513    0.000000109
      5        6           0.000420570    0.002107614    0.000000057
      6        6          -0.001095160    0.003149838   -0.000000087
      7        1           0.001218741    0.001546290   -0.000000046
      8        1          -0.001064360   -0.001501259    0.000000029
      9        1          -0.001003595    0.000341729   -0.000000002
     10        1          -0.000373021    0.001075602   -0.000000004
     11        7          -0.076254700   -0.323242092   -0.000009569
     12       16           0.005515612    0.004006124   -0.000000317
     13        6           0.026162090    0.010751122   -0.000000530
     14        6          -0.044660498    0.024695030   -0.000000100
     15        6           0.010849491   -0.014535336    0.000000163
     16        6           0.008436807   -0.041500919   -0.000000475
     17        1          -0.001110923    0.000576220    0.000000000
     18        6          -0.023106615    0.000081015    0.000000479
     19        6           0.032788655    0.011448235    0.000000176
     20        1           0.001243932    0.000062761    0.000000028
     21        1          -0.000868972   -0.000927358   -0.000000277
     22        1           0.000206972    0.000635206    0.000000025
     23        6          -0.007098401    0.017714786    0.000001149
     24        8          -0.007740575    0.016217002   -0.000000292
     25        1           0.062409819    0.292270981    0.000009921
 -------------------------------------------------------------------
 Cartesian Forces:  Max     0.323242092 RMS     0.052658659
 Leave Link  716 at Tue Oct 27 23:29:37 2020, MaxMem=  7784628224 cpu:               0.3 elap:               0.1
 (Enter /gpfs/loomis/apps/avx/software/Gaussian/16-C.01_AVX/g16/l103.exe)

 GradGradGradGradGradGradGradGradGradGradGradGradGradGradGradGradGradGrad
 Berny optimization.
 FormGI is forming the generalized inverse of G from B-inverse, IUseBI=4.
 Internal  Forces:  Max     0.205643759 RMS     0.022575378
 Search for a local minimum.
 Step number   1 out of a maximum of  146
 All quantities printed in internal units (Hartrees-Bohrs-Radians)
 RMS Force = .22742D-01 SwitMx=.10000D-02 MixMth= 1
 Mixed Optimization -- RFO/linear search
 Second derivative matrix not updated -- first step.
 ITU=  0
     Eigenvalues ---    0.01342   0.01511   0.01577   0.01739   0.01793
     Eigenvalues ---    0.01804   0.01850   0.01881   0.01923   0.01929
     Eigenvalues ---    0.01962   0.01993   0.02011   0.02039   0.02094
     Eigenvalues ---    0.02098   0.02105   0.02112   0.02123   0.02127
     Eigenvalues ---    0.02146   0.02166   0.16000   0.16000   0.16000
     Eigenvalues ---    0.16000   0.16000   0.16000   0.16000   0.16003
     Eigenvalues ---    0.17191   0.22006   0.22010   0.22534   0.22587
     Eigenvalues ---    0.24392   0.24479   0.24599   0.25000   0.25000
     Eigenvalues ---    0.29645   0.29821   0.33230   0.34400   0.34456
     Eigenvalues ---    0.34475   0.34506   0.34515   0.34543   0.34603
     Eigenvalues ---    0.34633   0.35747   0.38730   0.41062   0.41766
     Eigenvalues ---    0.42168   0.43235   0.43621   0.45062   0.45394
     Eigenvalues ---    0.45705   0.46279   0.46424   0.47300   0.50256
     Eigenvalues ---    0.68447   0.814021000.000001000.000001000.00000
     Eigenvalues --- 1000.000001000.000001000.000001000.000001000.00000
     Eigenvalues --- 1000.000001000.000001000.000001000.000001000.00000
     Eigenvalues --- 1000.000001000.000001000.000001000.000001000.00000
     Eigenvalues --- 1000.000001000.000001000.000001000.000001000.00000
     Eigenvalues --- 1000.000001000.000001000.000001000.000001000.00000
     Eigenvalues --- 1000.000001000.000001000.000001000.000001000.00000
     Eigenvalues --- 1000.000001000.000001000.000001000.000001000.00000
     Eigenvalues --- 1000.000001000.000001000.000001000.000001000.00000
     Eigenvalues --- 1000.000001000.000001000.000001000.000001000.00000
     Eigenvalues --- 1000.000001000.000001000.000001000.000001000.00000
     Eigenvalues --- 1000.000001000.000001000.000001000.000001000.00000
     Eigenvalues --- 1000.000001000.000001000.000001000.000001000.00000
     Eigenvalues --- 1000.000001000.000001000.000001000.000001000.00000
     Eigenvalues --- 1000.00000
 RFO step:  Lambda=-9.71433348D-02 EMin= 1.34189947D-02
 Linear search not attempted -- first point.
 Maximum step size (   0.300) exceeded in Quadratic search.
    -- Step size scaled by   0.759
 Iteration  1 RMS(Cart)=  0.03320714 RMS(Int)=  0.00189777
 Iteration  2 RMS(Cart)=  0.00243852 RMS(Int)=  0.00180139
 Iteration  3 RMS(Cart)=  0.00001737 RMS(Int)=  0.00188817
 Iteration  4 RMS(Cart)=  0.00000019 RMS(Int)=  0.00188659
 Iteration  1 RMS(Cart)=  0.00003470 RMS(Int)=  0.00003545
 Iteration  2 RMS(Cart)=  0.00000065 RMS(Int)=  0.00001924
 ITry= 1 IFail=0 DXMaxC= 2.15D-01 DCOld= 1.00D+10 DXMaxT= 3.00D-01 DXLimC= 3.00D+00 Rises=F
 Variable       Old X    -DE/DX   Delta X   Delta X   Delta X     New X
                                 (Linear)    (Quad)   (Total)
    R1        2.63616  -0.01279   0.00000  -0.00966  -0.00904   2.62711
    R2        2.63312  -0.00194   0.00000   0.00053   0.00061   2.63373
    R3        2.06565  -0.00292   0.00000  -0.00407  -0.00400   2.06166
    R4        2.68560  -0.05382   0.00000  -0.05120  -0.04885   2.63676
    R5        3.30748   0.02025   0.00000   0.02537   0.02413   3.33161
    R6        2.64458  -0.00304   0.00000  -0.00686  -0.00695   2.63764
    R7        2.62525  -0.01272   0.00000  -0.01373  -0.01306   2.61219
    R8        2.64012  -0.00145   0.00000  -0.00669  -0.00700   2.63313
    R9        2.06536  -0.00157   0.00000  -0.00295  -0.00297   2.06239
   R10        2.64788  -0.01167   0.00000  -0.00725  -0.00657   2.64131
   R11        2.06424  -0.00117   0.00000  -0.00184  -0.00184   2.06240
   R12        2.06324  -0.00128   0.00000  -0.00207  -0.00206   2.06119
   R13        2.57255   0.00764   0.00000  -0.00390  -0.00505   2.56751
   R14        1.58612   0.20564   0.00000   0.19404   0.20023   1.78635
   R15        3.28141  -0.03636   0.00000  -0.01788  -0.01495   3.26646
   R16        2.61768   0.01190   0.00000   0.02804   0.02911   2.64679
   R17        2.79492  -0.01783   0.00000  -0.00691  -0.00527   2.78965
   R18        2.68633   0.02415   0.00000   0.01783   0.01641   2.70274
   R19        2.68007  -0.01580   0.00000  -0.04031  -0.04178   2.63830
   R20        2.06660  -0.00048   0.00000  -0.00056  -0.00055   2.06605
   R21        2.70317   0.02660   0.00000   0.01729   0.01549   2.71866
   R22        2.38548  -0.03815   0.00000  -0.01541  -0.01295   2.37253
   R23        2.64073   0.00033   0.00000   0.00953   0.01034   2.65107
   R24        2.06469  -0.00079   0.00000  -0.00183  -0.00186   2.06282
   R25        2.64784  -0.00915   0.00000  -0.02530  -0.02635   2.62149
   R26        2.06485  -0.00138   0.00000  -0.00211  -0.00209   2.06276
   R27        2.06274   0.00114   0.00000   0.00112   0.00107   2.06381
    A1        2.06120   0.00679   0.00000   0.00538   0.00471   2.06591
    A2        2.10381  -0.00508   0.00000  -0.00423  -0.00377   2.10004
    A3        2.11818  -0.00171   0.00000  -0.00115  -0.00094   2.11723
    A4        2.13961  -0.00732   0.00000  -0.01642  -0.01606   2.12355
    A5        2.19665   0.00390   0.00000   0.02394   0.02468   2.22133
    A6        1.94693   0.00342   0.00000  -0.00752  -0.00862   1.93831
    A7        2.06655   0.01766   0.00000   0.02878   0.02821   2.09476
    A8        1.96271  -0.02867   0.00000  -0.02868  -0.02688   1.93583
    A9        2.25393   0.01101   0.00000  -0.00010  -0.00133   2.25260
   A10        2.07491  -0.00629   0.00000  -0.00890  -0.00852   2.06639
   A11        2.09983   0.00433   0.00000   0.00556   0.00528   2.10511
   A12        2.10845   0.00197   0.00000   0.00334   0.00324   2.11169
   A13        2.13020  -0.00872   0.00000  -0.01202  -0.01166   2.11855
   A14        2.07093   0.00443   0.00000   0.00532   0.00512   2.07605
   A15        2.08205   0.00429   0.00000   0.00670   0.00653   2.08858
   A16        2.09390  -0.00211   0.00000   0.00317   0.00331   2.09721
   A17        2.09301   0.00099   0.00000  -0.00112  -0.00119   2.09183
   A18        2.09627   0.00112   0.00000  -0.00205  -0.00213   2.09414
   A19        1.95706   0.05832   0.00000   0.07888   0.07649   2.03356
   A20        2.41033  -0.08208   0.00000  -0.13914  -0.13472   2.27561
   A21        1.91579   0.02376   0.00000   0.06026   0.05823   1.97402
   A22        1.55462   0.02094   0.00000   0.03320   0.03201   1.58663
   A23        2.10675   0.00043   0.00000  -0.00558  -0.00594   2.10080
   A24        2.13921  -0.00083   0.00000  -0.01238  -0.01316   2.12604
   A25        2.03723   0.00040   0.00000   0.01796   0.01911   2.05634
   A26        2.09268   0.01096   0.00000   0.01778   0.01741   2.11008
   A27        2.10927  -0.00504   0.00000  -0.00591  -0.00565   2.10362
   A28        2.08124  -0.00592   0.00000  -0.01188  -0.01176   2.06948
   A29        2.04025  -0.01221   0.00000  -0.01714  -0.01669   2.02357
   A30        2.07714  -0.01093   0.00000   0.01960   0.02196   2.09909
   A31        2.16579   0.02314   0.00000  -0.00246  -0.00527   2.16052
   A32        2.11129  -0.00640   0.00000  -0.01453  -0.01446   2.09682
   A33        2.07525   0.00315   0.00000   0.00704   0.00701   2.08225
   A34        2.09665   0.00325   0.00000   0.00749   0.00746   2.10411
   A35        2.11522   0.00730   0.00000   0.01122   0.01095   2.12617
   A36        2.04132  -0.00212   0.00000  -0.00303  -0.00298   2.03834
   A37        2.12665  -0.00518   0.00000  -0.00818  -0.00797   2.11868
   A38        2.10019  -0.00008   0.00000   0.00825   0.00874   2.10893
   A39        2.08962  -0.00106   0.00000  -0.00410  -0.00421   2.08541
   A40        2.09338   0.00113   0.00000  -0.00414  -0.00453   2.08885
   A41        2.00345  -0.05401   0.00000  -0.07588  -0.07300   1.93045
   A42        2.12792   0.03212   0.00000   0.04156   0.03987   2.16779
   A43        2.15181   0.02189   0.00000   0.03432   0.03314   2.18495
    D1       -0.00000   0.00000   0.00000   0.00000   0.00000  -0.00000
    D2       -3.14159  -0.00000   0.00000  -0.00000  -0.00000   3.14159
    D3        3.14159   0.00000   0.00000   0.00000   0.00000   3.14159
    D4       -0.00000  -0.00000   0.00000  -0.00000  -0.00000  -0.00000
    D5       -0.00000  -0.00000   0.00000  -0.00000  -0.00000  -0.00000
    D6        3.14159  -0.00000   0.00000  -0.00000  -0.00000   3.14159
    D7        3.14159  -0.00000   0.00000  -0.00000  -0.00000   3.14159
    D8        0.00000  -0.00000   0.00000  -0.00000  -0.00000  -0.00000
    D9        0.00000   0.00000   0.00000   0.00000   0.00000   0.00000
   D10       -3.14159  -0.00000   0.00000  -0.00000  -0.00000   3.14159
   D11       -3.14159   0.00000   0.00000   0.00000   0.00000  -3.14159
   D12       -0.00000   0.00000   0.00000  -0.00000  -0.00000  -0.00000
   D13        3.14159  -0.00000   0.00000   0.00000   0.00000   3.14159
   D14       -0.00000  -0.00000   0.00000  -0.00000  -0.00000  -0.00000
   D15       -0.00000  -0.00000   0.00000  -0.00000  -0.00000  -0.00000
   D16        3.14159  -0.00000   0.00000  -0.00000  -0.00000   3.14159
   D17        3.14159   0.00000   0.00000   0.00000   0.00000  -3.14159
   D18        0.00000   0.00000   0.00000   0.00000   0.00000   0.00000
   D19        0.00001   0.00000   0.00000   0.00000   0.00000   0.00001
   D20        3.14154   0.00000   0.00000   0.00001   0.00001   3.14154
   D21       -3.14159   0.00000   0.00000  -0.00000  -0.00000  -3.14159
   D22       -0.00006   0.00000   0.00000   0.00001   0.00001  -0.00005
   D23        0.00000   0.00000   0.00000   0.00000   0.00000   0.00000
   D24       -3.14159   0.00000   0.00000   0.00000   0.00000  -3.14159
   D25        3.14159   0.00000   0.00000   0.00000   0.00000  -3.14159
   D26        0.00000  -0.00000   0.00000   0.00000   0.00000   0.00000
   D27        0.00000   0.00000   0.00000  -0.00000  -0.00000   0.00000
   D28       -3.14159  -0.00000   0.00000  -0.00000  -0.00000  -3.14159
[...]
 0025,-0.05643238,0.01146020,0.00000006,0.05278994,0.56886089,0.0000000
 2,-0.00000007,0.00055823,-0.00000003,0.,0.00067833,-0.00000016,0.,-0.0
 0138389,0.00000006,0.,-0.00014190,0.,0.00000007,0.00015738,-0.00000007
 ,-0.00000001,-0.00017504,0.,0.,0.00004403,0.,0.,-0.00007002,0.,0.,0.00
 004551,0.,0.,-0.00008883,-0.00000036,-0.00000058,-0.00057469,0.0000000
 7,0.00000016,0.00241577,-0.00000042,-0.00000027,-0.07331918,-0.0000002
 7,-0.00000017,0.00030396,0.00001011,0.00000708,0.20069160,0.00064604,-
 0.00085739,0.,-0.00113383,0.00144239,0.,0.00011597,-0.00156324,0.,0.00
 058406,0.00012916,0.,-0.00000855,0.00096246,0.,-0.00109577,-0.00008589
 ,0.,0.00003158,0.00003410,0.,0.00002641,-0.00005268,0.,-0.00007482,0.0
 0006400,0.,-0.00004417,0.00003330,0.,-0.00748776,0.00020095,0.00000001
 ,0.00094121,0.00220204,0.00000004,-0.05178003,0.02287734,0.00000029,-0
 .26384972,0.17728193,0.00000181,-0.00203604,0.01668314,0.00000030,0.77
 704632,-0.00135974,0.00221753,0.00000002,0.00240978,-0.00166103,0.,0.0
 0049929,0.00155785,0.00000007,-0.00175350,0.00043685,0.00000002,-0.000
 08733,-0.00252531,-0.00000002,0.00266806,0.00025366,0.,-0.00012602,-0.
 00005759,0.,0.00006838,0.00009424,0.,0.00015879,-0.00010832,0.,0.00012
 942,-0.00006597,0.,0.01412931,0.00485676,-0.00000016,-0.00401180,-0.00
 493974,-0.00000005,0.05882649,0.00854305,-0.00000031,0.11811861,-0.277
 15491,-0.00000198,0.02963527,-0.04176656,0.00000009,-0.02653589,0.6672
 9895,-0.00000002,0.00000003,0.00006058,0.00000004,-0.00000003,0.000517
 52,0.,0.00000002,-0.00051196,-0.00000003,0.,-0.00012309,0.,-0.00000004
 ,0.00004628,0.00000004,0.,-0.00002248,0.,0.,0.00000340,0.,0.,0.0000041
 2,0.,0.,0.00001692,0.,0.,-0.00002861,0.00000018,0.00000005,-0.00007104
 ,-0.00000005,-0.00000006,-0.00098681,0.00000081,-0.00000010,0.00967171
 ,0.00000113,-0.00000213,-0.06120891,0.00000045,-0.00000036,-0.00642431
 ,-0.00000128,0.00000557,0.11992862,0.00032618,-0.00002627,0.,-0.000714
 04,0.00037579,0.00000001,0.00033492,-0.00023898,0.,0.00005598,0.000047
 62,0.,0.00005610,0.00010522,0.,-0.00012891,-0.00008877,0.,-0.00001533,
 -0.00000829,0.,0.00003948,0.00000059,0.,0.00000709,0.00000106,0.,0.000
 03017,-0.00000756,0.,-0.00003089,0.00033441,0.,-0.00193266,0.00251428,
 0.00000001,-0.00422536,-0.02806220,-0.00000009,-0.08303999,-0.08049886
 ,-0.00000054,-0.00484778,0.00324072,0.00000002,0.01053731,0.02173486,0
 .00000019,0.08477282,0.00011659,-0.00006582,0.,-0.00021765,0.00081762,
 0.,0.00042387,-0.00040190,0.,0.00006151,0.00010363,0.,0.00001915,0.000
 12956,0.,-0.00016336,-0.00002260,0.,-0.00001535,0.00001147,0.,0.000035
 70,-0.00000652,0.,-0.00000585,0.00000804,0.,0.00000592,0.00000255,0.,-
 0.00124958,0.00012316,0.00000002,0.00090741,-0.00062069,0.,0.00005441,
 -0.00278204,-0.00000003,-0.07705869,-0.31239315,-0.00000205,0.00006181
 ,0.00258773,-0.00000002,-0.01141602,-0.01686528,-0.00000018,0.08252878
 ,0.33274243,0.,0.,-0.00001393,0.,0.,-0.00063972,0.,0.,0.00011494,0.,0.
 ,0.00007879,0.,0.,-0.00001949,0.,0.,0.00003010,0.,0.,-0.00001192,0.,0.
 ,-0.00001645,0.,0.,-0.00000314,0.,0.,0.00001867,0.00000003,0.00000002,
 -0.00016137,0.,-0.00000004,0.00140100,0.00000015,0.,0.00276804,-0.0000
 0060,-0.00000203,-0.03718840,0.00000010,-0.00000012,0.00458899,-0.0000
 0003,-0.00000026,0.00609822,0.00000047,0.00000232,0.02383397,-0.000481
 91,0.00122175,0.,0.00106860,-0.00078714,0.,0.00164341,0.00073668,0.000
 00005,-0.00102653,0.00016951,0.,-0.00001445,-0.00137477,0.,0.00138902,
 0.00014444,0.,-0.00008421,0.00001626,0.,0.00012523,0.00002360,0.,0.000
 07287,-0.00005184,0.,0.00007121,-0.00001657,0.,0.00796287,0.00584581,-
 0.00000005,-0.00154146,-0.00204707,-0.00000003,0.04488176,0.00446381,-
 0.00000006,-0.04723842,0.01964845,0.00000023,-0.13687211,0.04270039,0.
 00000203,0.00048449,-0.07233202,-0.00000108,-0.00010788,0.00040623,-0.
 00000005,0.73210627,0.00077607,-0.00067368,0.,-0.00138890,0.00018376,0
 .00000001,-0.00014415,-0.00040602,0.,0.00062594,-0.00013603,0.,0.00008
 911,0.00089099,0.,-0.00092914,-0.00018374,0.,0.00001269,0.00003335,0.,
 -0.00000057,-0.00002407,0.,-0.00003733,0.00003476,0.,-0.00000460,0.000
 00788,0.,-0.00458310,-0.00037362,0.00000005,0.00229073,0.00073842,0.00
 000005,0.00737822,-0.02272242,-0.00000072,0.01037056,-0.00583617,-0.00
 000005,0.06651555,-0.20462661,-0.00000296,-0.03793524,0.00312209,0.000
 00009,-0.00005079,0.00055213,-0.00000005,0.09579850,0.68603045,0.,0.,-
 0.00015041,0.,-0.00000002,-0.00027732,-0.00000002,0.00000005,-0.000921
 25,0.,0.,0.00004423,0.,0.,0.00003560,0.,0.,0.00005111,0.,0.,-0.0000572
 1,0.,0.,-0.00003935,0.,0.,-0.00000779,0.,0.,0.00004135,-0.00000003,-0.
 00000011,0.00106826,0.00000003,0.00000004,-0.00082056,0.00000007,-0.00
 000016,0.01028415,0.00000041,-0.00000010,-0.00081442,0.00000235,-0.000
 00311,-0.07757835,-0.00000065,0.00000024,0.00771082,-0.00000001,0.,-0.
 00011805,0.00000102,0.00001082,0.11975048,0.00090624,-0.00140383,-0.00
 000001,-0.00169899,0.00101649,0.,-0.00061544,-0.00082584,-0.00000004,0
 .00118119,-0.00024117,-0.00000001,0.00005149,0.00165390,0.,-0.00172486
 ,-0.00020165,0.,0.00007510,0.00003473,0.,-0.00005444,-0.00005778,0.,-0
 .00009878,0.00007245,0.,-0.00007448,0.00003699,0.,-0.00869474,-0.00263
 666,0.00000012,0.00252017,0.00270375,0.00000004,-0.03282537,0.00385753
 ,0.00000026,0.04998875,0.00274841,-0.00000008,-0.05114363,0.02639111,-
 0.00000036,-0.13949234,-0.02136918,0.00000023,-0.00298350,0.00448179,0
 .,-0.41532658,-0.09914498,-0.00000094,0.76848865,0.00084375,-0.0013357
 6,-0.00000001,-0.00136653,0.00114557,0.,-0.00034688,-0.00162714,-0.000
 00004,0.00090182,-0.00011101,0.,0.00004321,0.00146099,0.,-0.00161600,-
 0.00013386,0.,0.00007816,0.00001865,0.,-0.00005464,-0.00004833,0.,-0.0
 0009684,0.00007054,0.,-0.00006980,0.00003560,0.,-0.01086356,-0.0034579
 0,0.00000008,0.00247205,0.00254666,0.00000004,-0.03877270,-0.00328323,
 0.00000034,0.04747459,-0.05561968,-0.00000082,-0.00446583,0.05162903,0
 .00000044,-0.08579295,-0.28160365,-0.00000236,0.00280514,-0.00188804,-
 0.00000008,-0.03977827,-0.15050325,-0.00000196,-0.02120507,0.67360929,
 0.00000001,-0.00000002,-0.00000239,-0.00000002,0.00000002,0.00016361,0
 .,-0.00000002,0.00036147,0.00000001,0.,-0.00000269,0.,0.00000002,-0.00
 003000,-0.00000002,0.,-0.00000055,0.,0.,0.00001056,0.,0.,0.00002993,0.
 ,0.,-0.00000351,0.,0.,-0.00001239,-0.00000014,-0.00000002,-0.00012521,
 0.00000003,0.00000002,-0.00020160,-0.00000053,-0.00000006,-0.00465883,
 0.00000056,-0.00000066,0.00699798,0.00000017,0.00000085,-0.00027817,-0
 .00000086,-0.00000268,-0.06244525,0.00000005,-0.00000006,0.00849414,0.
 00000015,-0.00000143,-0.05834715,-0.00000141,0.00000699,0.14478759,0.0
 0001392,-0.00008211,0.,-0.00001867,0.00013351,0.,-0.00002621,-0.000164
 49,0.,0.00004172,0.00003101,0.,-0.00001223,0.00006646,0.,-0.00008438,0
 .00000900,0.,0.00000602,0.00000507,0.,0.00000120,-0.00000647,0.,-0.000
 00963,0.00000810,0.,-0.00000939,0.00000575,0.,-0.00047630,0.00041057,0
 .,0.00003959,0.00009168,0.,-0.00016088,0.00383034,0.00000005,-0.015413
 86,-0.00851873,-0.00000003,0.00057169,0.00015254,0.,-0.33362105,-0.063
 00478,0.00000012,0.00077856,0.00013779,-0.00000002,0.00139926,-0.00141
 224,-0.00000001,-0.00426786,0.00255342,0.00000005,0.35146372,-0.000001
 76,0.00002515,0.,0.00001636,-0.00006578,0.,0.00007384,0.00009955,0.,-0
 .00001385,-0.00004026,0.,0.00001269,-0.00001687,0.,0.00002431,-0.00000
 374,0.,-0.00000052,-0.00000256,0.,0.00000094,0.00000167,0.,0.00000345,
 -0.00000471,0.,0.00000271,-0.00000124,0.,0.00033173,-0.00031117,0.,0.0
 0001057,0.00003272,0.,0.00227940,-0.00312206,-0.00000011,0.02423224,0.
 00836517,0.,0.00058584,-0.00144358,0.,-0.06424190,-0.07149970,-0.00000
 022,-0.00014237,0.00093877,0.00000005,-0.00009213,-0.00523377,-0.00000
 012,-0.02976267,-0.00156632,0.00000007,0.06713238,0.07188237,0.,0.,0.0
 0000488,0.,0.,-0.00008989,0.,0.,-0.00036668,0.,0.,-0.00002947,0.,0.,0.
 00003826,0.,0.,-0.00000746,0.,0.,-0.00000086,0.,0.,-0.00001769,0.,0.,0
 .00000917,0.,0.,0.00000593,0.00000003,0.,-0.00060676,0.,0.,0.00024918,
 -0.00000002,-0.00000017,0.00818284,0.00000035,0.,0.00161185,0.,0.00000
 002,-0.00071038,0.00000019,-0.00000015,-0.03092229,-0.00000003,0.00000
 005,-0.00553257,-0.00000005,-0.00000011,0.00425604,-0.00000029,-0.0000
 0001,0.00058110,-0.00000014,0.00000031,0.02375847,-0.00007413,0.000011
 60,0.,0.00010017,0.00009401,0.,-0.00003849,-0.00000284,0.,-0.00002116,
 0.00001029,0.,-0.00000964,-0.00003650,0.,0.00003971,0.00001801,0.,0.00
 000101,-0.00000437,0.,-0.00000350,0.00000072,0.,0.00000095,-0.00000117
 ,0.,-0.00000421,-0.00000065,0.,0.00036936,-0.00011331,0.,-0.00033293,0
 .00014387,0.,-0.00261061,0.00250267,0.00000006,-0.00142266,0.00033252,
 0.,0.00940593,0.02189101,0.00000037,-0.00481098,-0.00009831,0.00000003
 ,0.00012647,-0.00008696,0.,-0.07876768,-0.07796600,-0.00000139,-0.0037
 0849,-0.02988326,-0.00000054,-0.00036108,-0.00142079,0.,0.07912617,0.0
 0002188,0.00010937,0.,-0.00006942,-0.00019536,0.,0.00002243,0.00016468
 ,0.,-0.00004962,-0.00000975,0.,0.00001513,-0.00008057,0.,0.00009284,-0
 .00001721,0.,-0.00000850,0.00000087,0.,0.00000441,0.00000684,0.,0.0000
 1136,-0.00000683,0.,0.00001422,-0.00000577,0.,0.00034775,0.00012273,0.
 ,0.00019928,-0.00038895,0.,0.00402033,-0.00249633,-0.00000019,0.001037
 88,0.00044883,0.00000003,-0.01297882,-0.01658741,-0.00000030,-0.001011
 49,0.00215893,-0.00000021,-0.00005756,-0.00009915,0.00000003,-0.078232
 04,-0.32247127,-0.00000590,0.00211855,-0.00256559,-0.00000008,0.000037
 58,-0.00023229,-0.00000002,0.08554500,0.33864987,0.,0.,0.00004509,0.,0
 .,0.00002016,0.,0.,-0.00003445,0.,0.,-0.00000139,0.,0.,0.00000250,0.,0
 .,-0.00000665,0.,0.,0.00000420,0.,0.,0.00000038,0.,0.,0.00000276,0.,0.
 ,-0.00000783,0.00000003,0.,-0.00006260,0.,0.,0.00009501,0.00000016,-0.
 00000015,0.00396202,-0.00000003,0.00000007,-0.00075347,-0.00000022,-0.
 00000070,0.00445090,0.00000001,-0.00000014,0.00906849,0.,0.,-0.0009987
 7,-0.00000170,-0.00000563,-0.03424723,0.00000020,0.00000002,0.00315735
 ,0.,-0.00000001,0.00052299,0.00000150,0.00000633,0.02426742,0.00004520
 ,-0.00008256,0.,-0.00005169,0.00014481,0.,0.00009735,-0.00015597,0.,0.
 00004357,0.00000424,0.,-0.00000052,0.00008362,0.,-0.00009986,0.0000006
 1,0.,0.00000435,0.00000369,0.,0.00000508,-0.00000675,0.,-0.00000928,0.
 00000621,0.,-0.00000693,0.00000524,0.,-0.00047916,0.00017521,0.,0.0000
 5847,0.00028240,0.,-0.00088581,0.00030637,0.,0.00096578,-0.00229836,0.
 ,-0.00264107,-0.00428204,-0.00000012,0.00893993,-0.00825088,-0.0000001
 2,0.00033134,-0.00042423,0.,-0.01545733,0.02483511,0.00000058,-0.19221
 925,0.14050162,0.00000212,0.00059043,0.00042927,-0.00000002,0.00095483
 ,-0.00029524,0.00000001,0.20091001,0.00001927,0.00002926,0.,-0.0000816
 5,0.00002363,0.,0.00001805,0.00007163,0.,-0.00000137,-0.00000146,0.,0.
 00000984,-0.00001342,0.,0.00001964,-0.00001125,0.,-0.00000581,-0.00000
 076,0.,0.00000372,0.00000289,0.,0.00000524,-0.00000257,0.,0.00000668,-
 0.00000362,0.,0.00018150,-0.00006860,0.,-0.00009472,-0.00001390,0.,-0.
 00072827,0.00058003,0.00000001,-0.00340049,-0.00510911,-0.00000011,-0.
 00248267,0.00009864,-0.00000015,0.02309221,-0.01448316,-0.00000034,0.0
 0109621,-0.00113152,0.,-0.00749887,0.00825562,0.00000011,0.14122873,-0
 .20818672,-0.00000258,-0.00023288,0.00104780,0.00000004,0.00009789,0.0
 0087527,0.00000010,-0.15138477,0.21745462,0.,0.,-0.00000224,-0.0000000
 1,0.,-0.00006346,0.,0.,0.00014317,0.,0.,0.00000441,0.,0.,-0.00000717,0
 .,0.,-0.00000376,0.,0.,0.00000611,0.,0.,0.00000055,0.,0.,0.00000029,0.
 ,0.,0.00000313,-0.00000003,0.,-0.00012714,0.,0.,0.00028390,-0.00000011
 ,0.00000002,-0.00116079,0.00000006,-0.00000016,0.00457036,-0.00000018,
 -0.00000006,0.01133606,0.00000034,-0.00000005,0.00472737,0.00000002,-0
 .00000002,-0.00036854,0.00000014,-0.00000017,0.00719208,0.00000196,-0.
 00000265,-0.04234890,-0.00000001,0.00000004,-0.00239704,-0.00000002,0.
 00000017,-0.00603098,-0.00000244,0.00000288,0.02680246,-0.00863878,-0.
 00040660,0.00000007,0.00648799,0.01635779,0.00000015,-0.06449350,0.047
 08683,0.00000049,0.00781437,-0.00354891,-0.00000002,-0.00296680,0.0011
 6228,0.,0.00220844,-0.00265975,-0.00000002,0.00003254,-0.00096981,0.,-
 0.00058616,0.00006950,0.,0.00051946,-0.00030108,0.,-0.00058839,-0.0001
 4939,0.,-0.36181365,-0.04132022,0.00000260,-0.06361363,-0.05406445,-0.
 00000028,-0.17646591,0.08610384,0.00000114,-0.06323611,0.03421561,0.00
 000077,0.04752460,0.02267062,0.00000077,0.00617858,-0.02904431,-0.0000
 0033,0.00155933,0.00194382,-0.00000008,-0.01288505,0.00413239,0.000000
 09,0.01414132,0.01491558,0.00000018,-0.00029902,0.00085472,-0.00000002
 ,0.00020804,-0.00152863,-0.00000008,0.00084775,-0.00004254,0.00000004,
 0.71373264,0.00257855,-0.00332343,-0.00000003,0.02041922,-0.02253444,-
 0.00000018,0.01528182,0.01621822,-0.00000026,0.00707592,-0.00950965,-0
 .00000007,-0.00079704,0.00650002,0.00000003,-0.00466242,-0.00362105,0.
 ,0.00025430,-0.00053550,0.,-0.00060773,-0.00006573,0.,0.00007612,-0.00
 035914,0.,-0.00043715,0.00012992,0.,-0.04930698,-0.15139692,0.00000050
 ,-0.00595003,-0.16490657,-0.00000066,0.08515099,-0.21561899,-0.0000011
 5,0.03303045,0.00534925,-0.00000031,0.00098341,-0.04134601,-0.00000102
 ,-0.01385729,0.02298939,0.00000030,-0.00278884,-0.00105847,0.00000008,
 0.00862868,-0.01148584,-0.00000008,-0.01408487,-0.01473662,-0.00000019
 ,-0.00111096,0.00077959,0.00000002,0.00144531,-0.00035147,0.00000001,-
 0.00067327,0.00018115,-0.00000005,-0.07156715,0.57111865,0.00000010,-0
 .00000004,-0.00021063,-0.00000007,-0.00000006,0.00141312,0.00000027,-0
 .00000024,0.00097594,0.00000002,0.,0.00119936,0.,0.00000005,0.00123007
 ,-0.00000007,-0.00000001,0.00098110,0.,0.,-0.00047469,0.,0.,-0.0004388
 4,0.,0.,-0.00028912,0.,0.,-0.00005468,0.00000260,0.00000026,-0.0556129
 1,0.00000014,-0.00000057,-0.03333482,0.00000107,-0.00000147,-0.0574552
 2,0.00000051,0.00000002,-0.00576398,-0.00000036,-0.00000027,0.00413895
 ,-0.00000015,0.00000026,0.00510638,0.,0.,-0.00223987,0.00000017,-0.000
 00014,0.00378132,-0.00000017,-0.00000020,-0.00078993,0.,-0.00000001,0.
 00167618,0.,0.00000002,-0.00035906,-0.00000001,0.00000001,-0.00066059,
 -0.00000471,0.00000201,0.13861588,-0.00118282,0.00314988,0.00000001,0.
 00220338,-0.00060011,-0.00000002,0.00765114,0.00104758,0.00000003,-0.0
 0283536,0.00059209,0.00000002,0.00003597,-0.00348604,-0.00000002,0.003
 38915,0.00061259,-0.00000001,-0.00021274,0.00013936,0.,0.00029378,0.00
 004198,0.,0.00010855,-0.00008157,0.,0.00014717,0.00000601,0.,0.0184909
 2,0.02841592,-0.00000004,-0.00282383,-0.00480356,-0.00000003,-0.009510
 45,-0.06727862,-0.00000194,-0.01473135,0.00259480,0.00000003,-0.548819
 44,-0.10028229,-0.00001189,-0.00008680,-0.02185656,-0.00000035,-0.0011
 5450,-0.00064602,0.00000003,-0.08435349,0.01150546,-0.00000158,0.01869
 595,0.02320820,0.00000024,-0.00021512,-0.00032436,-0.00000001,0.001853
 40,0.00077057,0.00000010,-0.00206851,0.00020940,0.00000024,-0.04153153
 ,0.02569378,0.00000060,0.65004640,-0.00034122,-0.00013994,0.00000002,0
 .00029461,-0.00170374,0.00000002,-0.00517852,-0.00172562,-0.00000021,-
 0.00010803,-0.00026000,0.,0.00029962,0.00006271,0.,0.00012043,-0.00008
 327,0.,0.00004850,-0.00015571,0.,0.00011097,0.00006798,0.,0.00009321,-
 0.00009105,0.,0.00006100,-0.00005453,0.,0.01305747,-0.02124808,-0.0000
 0037,-0.00010931,-0.00158006,-0.00000004,-0.05533525,-0.01428304,-0.00
 000131,0.00942282,-0.00892166,-0.00000023,-0.11258190,-0.12403452,-0.0
 0000312,-0.00356367,0.00643868,0.00000006,-0.00240079,-0.00069585,0.00
 000006,0.03297170,0.02295220,0.00000048,-0.00051221,-0.01040948,-0.000
 00024,-0.00008808,0.00053249,0.00000001,-0.00258078,0.00308330,0.00000
 012,0.00133185,0.00040125,0.,-0.00015245,0.00525067,-0.00000003,0.1321
 7741,0.15200491,-0.00000003,0.00000002,-0.00021930,0.00000004,-0.00000
 006,-0.00008093,-0.00000012,-0.00000015,0.00179972,-0.00000005,0.,0.00
 003319,0.00000001,-0.00000004,-0.00009990,0.00000004,0.,0.00004424,0.,
 0.,0.00002488,0.,0.,0.00002514,0.,0.,-0.00001305,0.,0.,0.00000219,0.00
 000073,-0.00000041,0.00161589,-0.00000006,-0.00000021,-0.00007407,-0.0
 0000089,-0.00000103,0.01837905,-0.00000018,-0.00000006,0.00471069,-0.0
 0001358,-0.00000367,-0.06902260,-0.00000008,-0.00000033,-0.00028643,-0
 .00000006,-0.00000002,-0.00006262,-0.00000048,0.00000030,0.01792147,0.
 00000041,0.00000007,0.00457204,0.,0.,-0.00041964,0.,0.00000014,-0.0030
 8507,0.,0.00000003,-0.00171261,-0.00000043,0.00000058,-0.00238707,0.00
 001516,0.00000469,0.03496695,0.00140117,0.00026562,0.,-0.00393003,0.00
 500005,0.00000003,0.01446143,0.01948659,-0.00000015,0.00167966,-0.0000
 2988,-0.00000001,-0.00015059,0.00025057,0.,-0.00048876,-0.00007276,0.,
 -0.00017328,0.00032927,0.,-0.00091478,-0.00044036,0.,-0.00002253,0.000
 00606,0.,-0.00005265,-0.00005046,0.,-0.12308974,-0.14095198,0.00000101
 ,-0.00392701,-0.00187644,0.00000010,-0.00055391,0.00414715,0.,0.000996
 57,-0.00009197,-0.00000004,-0.01339240,-0.00036188,-0.00000008,-0.0000
 1005,0.00145205,0.00000003,0.00022509,0.00009891,0.,0.00295212,-0.0007
 3331,0.00000006,-0.00112013,-0.00148521,-0.00000003,0.00006960,0.00000
 993,0.,-0.00002049,-0.00002788,0.,0.00012534,-0.00003432,-0.00000001,-
 0.00413654,-0.03477482,0.00000006,0.00661012,-0.00703738,-0.00000044,0
 .12346179,-0.00101475,0.00103168,0.,0.00364418,0.00042761,0.,0.0001529
 5,-0.01205575,0.00000013,-0.00203836,0.00195887,0.00000001,-0.00031933
 ,-0.00193700,-0.00000001,0.00121844,0.00084245,0.,0.00002317,0.0000630
 5,0.,0.00041686,-0.00033194,0.,-0.00011375,0.00013035,0.,0.00001284,0.
 00007665,0.,-0.13010120,-0.38328467,0.00000215,0.00070011,0.00367857,0
 .00000002,0.00860740,-0.01378061,-0.00000019,-0.00726823,-0.00015902,0
 .00000012,0.02782576,0.01338435,0.00000086,0.00191063,-0.00723675,-0.0
 0000011,-0.00041342,0.00001392,0.,-0.01056509,0.00187484,-0.00000018,0
 .00510151,0.00656027,0.00000008,0.00001554,-0.00016123,0.,0.00010204,-
 0.00011274,0.,-0.00025620,0.00000430,0.00000005,-0.02375768,0.01233298
 ,0.00000038,-0.03080588,-0.00540764,0.00000014,0.15692244,0.38208747,0
 .,0.,0.00086981,0.00000003,-0.00000002,0.00217041,0.00000007,-0.000000
 18,-0.00334579,-0.00000004,0.,-0.00069188,0.,-0.00000002,-0.00022909,0
 .00000002,0.00000001,-0.00008182,0.,0.,-0.00000914,0.,0.,0.00001021,0.
 ,0.,0.00005414,0.,0.,0.00000094,0.00000116,0.00000306,-0.01260650,0.,-
 0.00000009,0.00439824,0.00000011,-0.00000031,-0.00316597,-0.00000015,-
 0.00000002,-0.00081564,0.00000045,0.00000049,0.00035766,0.00000005,-0.
 00000013,0.00007075,-0.00000001,0.,-0.00005202,-0.00000030,-0.00000005
 ,0.00124219,0.00000007,0.00000016,0.00009082,0.,0.,0.00020385,0.,0.,-0
 .00001178,-0.00000002,0.,-0.00018665,-0.00000034,0.00000046,0.00095310
 ,-0.00000057,0.00000007,-0.00663216,-0.00000053,-0.00000344,0.01740633
 \\0.00033736,0.00271866,-0.00000010,0.00371851,0.00589172,-0.00000001,
 0.00718172,-0.00007903,0.00000052,-0.00028842,0.00061070,-0.00000007,-
 0.00034450,-0.00267791,0.00000004,0.00024842,0.00038823,0.00000002,-0.
 00017434,0.00038226,-0.00000002,0.00025793,-0.00006148,0.00000002,-0.0
 0001131,-0.00006500,0.,-0.00002816,0.00002004,0.,-0.00891781,0.0066271
 7,-0.00000016,0.00261536,0.00811844,-0.00000024,-0.00554559,0.00371684
 ,0.00000217,0.00595393,-0.00091785,0.00000035,0.00961437,0.00246086,-0
 .00000697,-0.00185673,0.00433062,0.00000004,0.00019809,-0.00005582,0.,
 -0.00272937,0.00005253,0.00000195,-0.00438749,-0.00160661,0.00000010,-
 0.00009703,-0.00013973,0.00000003,-0.00034034,0.00001457,0.00000012,-0
 .00041495,-0.00020563,-0.00000029,-0.00513111,-0.00337235,0.00000032,-
 0.00553640,-0.00711752,0.00000315,0.00567786,-0.01903370,-0.00000096\\
 \@
 The archive entry for this job was punched.


 ACHIEVEMENT--  THE MAN WHO ROWS THE BOAT GENERALLY 
                DOESN'T HAVE TIME TO ROCK IT.

                   -- FROM THE BACK OF A SUGAR PACKET
 Job cpu time:       0 days  1 hours  0 minutes 12.1 seconds.
 Elapsed time:       0 days  0 hours  6 minutes  8.1 seconds.
 File lengths (MBytes):  RWF=    544 Int=      0 D2E=      0 Chk=     40 Scr=      8
 Normal termination of Gaussian 16 at Tue Oct 27 23:43:28 2020.
