 Entering Gaussian System, Link 0=g16
 Initial command:
 /gpfs/loomis/apps/avx/software/Gaussian/16-C.01_AVX/g16/l1.exe "/home/fas/batista/pev4/scratch60/gauss-scratch/Gau-88827.inp" -scrdir="/home/fas/batista/pev4/scratch60/gauss-scratch/"
 Entering Link 1 = /gpfs/loomis/apps/avx/software/Gaussian/16-C.01_AVX/g16/l1.exe PID=     88828.
  
 Copyright (c) 1988-2019, Gaussian, Inc.  All Rights Reserved.
  
 This is part of the Gaussian(R) 16 program.  It is based on
 the Gaussian(R) 09 system (copyright 2009, Gaussian, Inc.),
 the Gaussian(R) 03 system (copyright 2003, Gaussian, Inc.),
 the Gaussian(R) 98 system (copyright 1998, Gaussian, Inc.),
 the Gaussian(R) 94 system (copyright 1995, Gaussian, Inc.),
 the Gaussian 92(TM) system (copyright 1992, Gaussian, Inc.),
 the Gaussian 90(TM) system (copyright 1990, Gaussian, Inc.),
 the Gaussian 88(TM) system (copyright 1988, Gaussian, Inc.),
 the Gaussian 86(TM) system (copyright 1986, Carnegie Mellon
 University), and the Gaussian 82(TM) system (copyright 1983,
 Carnegie Mellon University). Gaussian is a federally registered
 trademark of Gaussian, Inc.
  
 This software contains proprietary and confidential information,
 including trade secrets, belonging to Gaussian, Inc.
  
 This software is provided under written license and may be
 used, copied, transmitted, or stored only in accord with that
 written license.
  
 The following legend is applicable only to US Government
 contracts under FAR:
  
                    RESTRICTED RIGHTS LEGEND
  
 Use, reproduction and disclosure by the US Government is
 subject to restrictions as set forth in subparagraphs (a)
 and (c) of the Commercial Computer Software - Restricted
 Rights clause in FAR 52.227-19.
  
 Gaussian, Inc.
 340 Quinnipiac St., Bldg. 40, Wallingford CT 06492
  
  
 ---------------------------------------------------------------
 Warning -- This program may not be used in any manner that
 competes with the business of Gaussian, Inc. or will provide
 assistance to any competitor of Gaussian, Inc.  The licensee
 of this program is prohibited from giving any competitor of
 Gaussian, Inc. access to this program.  By using this program,
 the user acknowledges that Gaussian, Inc. is engaged in the
 business of creating and licensing software in the field of
 computational chemistry and represents and warrants to the
 licensee that it is not a competitor of Gaussian, Inc. and that
 it will not use this program in any manner prohibited above.
 ---------------------------------------------------------------
  

 Cite this work as:
 Gaussian 16, Revision C.01,
 M. J. Frisch, G. W. Trucks, H. B. Schlegel, G. E. Scuseria, 
 M. A. Robb, J. R. Cheeseman, G. Scalmani, V. Barone, 
 G. A. Petersson, H. Nakatsuji, X. Li, M. Caricato, A. V. Marenich, 
 J. Bloino, B. G. Janesko, R. Gomperts, B. Mennucci, H. P. Hratchian, 
 J. V. Ortiz, A. F. Izmaylov, J. L. Sonnenberg, D. Williams-Young, 
 F. Ding, F. Lipparini, F. Egidi, J. Goings, B. Peng, A. Petrone, 
 T. Henderson, D. Ranasinghe, V. G. Zakrzewski, J. Gao, N. Rega, 
 G. Zheng, W. Liang, M. Hada, M. Ehara, K. Toyota, R. Fukuda, 
 J. Hasegawa, M. Ishida, T. Nakajima, Y. Honda, O. Kitao, H. Nakai, 
 T. Vreven, K. Throssell, J. A. Montgomery, Jr., J. E. Peralta, 
 F. Ogliaro, M. J. Bearpark, J. J. Heyd, E. N. Brothers, K. N. Kudin, 
 V. N. Staroverov, T. A. Keith, R. Kobayashi, J. Normand, 
 K. Raghavachari, A. P. Rendell, J. C. Burant, S. S. Iyengar, 
 J. Tomasi, M. Cossi, J. M. Millam, M. Klene, C. Adamo, R. Cammi, 
 J. W. Ochterski, R. L. Martin, K. Morokuma, O. Farkas, 
 J. B. Foresman, and D. J. Fox, Gaussian, Inc., Wallingford CT, 2019.
 
 ******************************************
 Gaussian 16:  ES64L-G16RevC.01  3-Jul-2019
                27-Oct-2020 
 ******************************************
 %chk=config_7_1.chk
 %mem=58GB
 %nprocshared=10
 Will use up to   10 processors via shared memory.
 ----------------------------------------------------------------------
 #p opt=addgic freq wb97xd/cc-pvdz nosymm int=ultrafine scrf=(solvent=C
 arbonTetraChloride)
 ----------------------------------------------------------------------
 1/18=20,19=15,26=6,38=1,145=903/1,3;
 2/9=110,12=2,15=1,17=6,18=5,40=1/2;
 3/5=16,11=2,25=1,30=1,70=2201,71=1,72=11,74=-58,75=-5/1,2,3;
 4//1;
 5/5=2,38=5,53=11/2;
 6/7=2,8=2,9=2,10=2,28=1/1;
 7/30=1/1,2,3,16;
 1/18=20,19=15,26=6,145=903/3(2);
 2/9=110,15=1/2;
 99//99;
 2/9=110,15=1/2;
 3/5=16,11=2,25=1,30=1,70=2205,71=1,72=11,74=-58,75=-5/1,2,3;
 4/5=5,16=3,69=1/1;
 5/5=2,38=5,53=11/2;
 7/30=1/1,2,3,16;
 1/18=20,19=15,26=6,145=903/3(-5);
 2/9=110,15=1/2;
 6/7=2,8=2,9=2,10=2,19=2,28=1/1;
 99/9=1/99;
 Leave Link    1 at Tue Oct 27 20:22:09 2020, MaxMem=  7784628224 cpu:               4.0 elap:               0.5
 (Enter /gpfs/loomis/apps/avx/software/Gaussian/16-C.01_AVX/g16/l101.exe)
 ------------------------------------------------
 NM 2D-scan of HBT TD-WB97XD pVDZ in CTC Relaxed.
 ------------------------------------------------
 Symbolic Z-matrix:
 Charge =  0 Multiplicity = 1
 C                     1.76291  -3.27322  -0.00003 
 C                     1.00243  -2.09874  -0.00002 
 C                     1.65335  -0.83297  -0.00002 
 C                     3.06285  -0.73979  -0.00002 
 C                     3.80211  -1.91127  -0.00002 
 C                     3.16175  -3.16665  -0.00003 
 H                     1.28442  -4.25783  -0.00003 
 H                     3.53469   0.24784  -0.00001 
 H                     4.89488  -1.86305  -0.00002 
 H                     3.76486  -4.07869  -0.00003 
 N                     0.82363   0.22287  -0.00001 
 S                    -0.75465  -1.86223  -0.00002 
 C                    -1.42806   0.99439  0. 
 C                    -2.83395   0.90383  -0.00002 
 C                    -0.85672   2.37777   0.00003 
 C                    -3.64289   2.05724   0.00002 
 H                    -3.30918  -0.08274  -0.00005 
 C                    -1.71215   3.50556   0.00007 
 C                    -3.09557   3.35693   0.00007 
 H                    -4.72935   1.93383   0.00001 
 H                    -1.22586   4.48569   0.00009 
 H                    -3.75002   4.2315    0.0001 
 C                    -0.49633  -0.08951  -0.00001 
 O                     0.41673   2.58222   0.00002 
 H                     0.89689   1.48029   0. 
 
 Add virtual bond connecting atoms H25        and N11        Dist= 2.38D+00.
 Add virtual bond connecting atoms H25        and O24        Dist= 2.27D+00.
 Initializing the GIC definitions file.
 Number of initial coordinates =   142
 Number of input entries/lines =    52
 Number of additional coordinates =     2
 Number of removed coordinates =     0
 Number of frozen coordinates =     2
 Number of final active and frozen coordinates =   144
 ITRead=  0  0  0  0  0  0  0  0  0  0  0  0  0  0  0  0  0  0  0  0
 ITRead=  0  0  0  0  0
 MicOpt= -1 -1 -1 -1 -1 -1 -1 -1 -1 -1 -1 -1 -1 -1 -1 -1 -1 -1 -1 -1
 MicOpt= -1 -1 -1 -1 -1
 NAtoms=     25 NQM=       25 NQMF=       0 NMMI=      0 NMMIF=      0
                NMic=       0 NMicF=      0.
                    Isotopes and Nuclear Properties:
 (Nuclear quadrupole moments (NQMom) in fm**2, nuclear magnetic moments (NMagM)
  in nuclear magnetons)

  Atom         1           2           3           4           5           6           7           8           9          10
 IAtWgt=          12          12          12          12          12          12           1           1           1           1
 AtmWgt=  12.0000000  12.0000000  12.0000000  12.0000000  12.0000000  12.0000000   1.0078250   1.0078250   1.0078250   1.0078250
 NucSpn=           0           0           0           0           0           0           1           1           1           1
 AtZEff=  -0.0000000  -0.0000000  -0.0000000  -0.0000000  -0.0000000  -0.0000000  -0.0000000  -0.0000000  -0.0000000  -0.0000000
 NQMom=    0.0000000   0.0000000   0.0000000   0.0000000   0.0000000   0.0000000   0.0000000   0.0000000   0.0000000   0.0000000
 NMagM=    0.0000000   0.0000000   0.0000000   0.0000000   0.0000000   0.0000000   2.7928460   2.7928460   2.7928460   2.7928460
 AtZNuc=   6.0000000   6.0000000   6.0000000   6.0000000   6.0000000   6.0000000   1.0000000   1.0000000   1.0000000   1.0000000

  Atom        11          12          13          14          15          16          17          18          19          20
 IAtWgt=          14          32          12          12          12          12           1          12          12           1
 AtmWgt=  14.0030740  31.9720718  12.0000000  12.0000000  12.0000000  12.0000000   1.0078250  12.0000000  12.0000000   1.0078250
 NucSpn=           2           0           0           0           0           0           1           0           0           1
 AtZEff=  -0.0000000  -0.0000000  -0.0000000  -0.0000000  -0.0000000  -0.0000000  -0.0000000  -0.0000000  -0.0000000  -0.0000000
 NQMom=    2.0440000   0.0000000   0.0000000   0.0000000   0.0000000   0.0000000   0.0000000   0.0000000   0.0000000   0.0000000
 NMagM=    0.4037610   0.0000000   0.0000000   0.0000000   0.0000000   0.0000000   2.7928460   0.0000000   0.0000000   2.7928460
 AtZNuc=   7.0000000  16.0000000   6.0000000   6.0000000   6.0000000   6.0000000   1.0000000   6.0000000   6.0000000   1.0000000

  Atom        21          22          23          24          25
 IAtWgt=           1           1          12          16           1
 AtmWgt=   1.0078250   1.0078250  12.0000000  15.9949146   1.0078250
 NucSpn=           1           1           0           0           1
 AtZEff=  -0.0000000  -0.0000000  -0.0000000  -0.0000000  -0.0000000
 NQMom=    0.0000000   0.0000000   0.0000000   0.0000000   0.0000000
 NMagM=    2.7928460   2.7928460   0.0000000   0.0000000   2.7928460
 AtZNuc=   1.0000000   1.0000000   6.0000000   8.0000000   1.0000000
 Leave Link  101 at Tue Oct 27 20:22:12 2020, MaxMem=  7784628224 cpu:              24.9 elap:               3.2
 (Enter /gpfs/loomis/apps/avx/software/Gaussian/16-C.01_AVX/g16/l103.exe)

 GradGradGradGradGradGradGradGradGradGradGradGradGradGradGradGradGradGrad
 Berny optimization.
 Initialization pass.
                           ----------------------------
                           !    Initial Parameters    !
                           ! (Angstroms and Degrees)  !
 --------------------------                            --------------------------
 ! Name  Definition              Value          Derivative Info.                !
 --------------------------------------------------------------------------------
 ! R1    R(1,2)                  1.3992         estimate D2E/DX2                !
 ! R2    R(1,6)                  1.4029         estimate D2E/DX2                !
 ! R3    R(1,7)                  1.0947         estimate D2E/DX2                !
 ! R4    R(2,3)                  1.4233         estimate D2E/DX2                !
 ! R5    R(2,12)                 1.7729         estimate D2E/DX2                !
 ! R6    R(3,4)                  1.4126         estimate D2E/DX2                !
 ! R7    R(3,11)                 1.3428         estimate D2E/DX2                !
 ! R8    R(4,5)                  1.3852         estimate D2E/DX2                !
 ! R9    R(4,8)                  1.0946         estimate D2E/DX2                !
 ! R10   R(5,6)                  1.4093         estimate D2E/DX2                !
 ! R11   R(5,9)                  1.0938         estimate D2E/DX2                !
 ! R12   R(6,10)                 1.0934         estimate D2E/DX2                !
 ! R13   R(11,23)                1.3564         estimate D2E/DX2                !
 ! R14   R(11,25)                1.2596         estimate D2E/DX2                !
 ! R15   R(12,23)                1.7914         estimate D2E/DX2                !
 ! R16   R(13,14)                1.4088         estimate D2E/DX2                !
 ! R17   R(13,15)                1.4967         estimate D2E/DX2                !
 ! R18   R(13,23)                1.4293         estimate D2E/DX2                !
 ! R19   R(14,16)                1.4088         estimate D2E/DX2                !
 ! R20   R(14,17)                1.0951         estimate D2E/DX2                !
 ! R21   R(15,18)                1.4155         estimate D2E/DX2                !
 ! R22   R(15,24)                1.2898         estimate D2E/DX2                !
 ! R23   R(16,19)                1.4102         estimate D2E/DX2                !
 ! R24   R(16,20)                1.0934         estimate D2E/DX2                !
 ! R25   R(18,19)                1.3914         estimate D2E/DX2                !
 ! R26   R(18,21)                1.0941         estimate D2E/DX2                !
 ! R27   R(19,22)                1.0923         estimate D2E/DX2                !
 ! R28   R(24,25)                1.202          estimate D2E/DX2                !
 ! A1    A(2,1,6)              118.5662         estimate D2E/DX2                !
 ! A2    A(2,1,7)              121.1589         estimate D2E/DX2                !
 ! A3    A(6,1,7)              120.2749         estimate D2E/DX2                !
 ! A4    A(1,2,3)              119.8626         estimate D2E/DX2                !
 ! A5    A(1,2,12)             130.5894         estimate D2E/DX2                !
 ! A6    A(3,2,12)             109.548          estimate D2E/DX2                !
 ! A7    A(2,3,4)              120.9965         estimate D2E/DX2                !
 ! A8    A(2,3,11)             114.6239         estimate D2E/DX2                !
 ! A9    A(4,3,11)             124.3795         estimate D2E/DX2                !
 ! A10   A(3,4,5)              118.4718         estimate D2E/DX2                !
 ! A11   A(3,4,8)              119.3182         estimate D2E/DX2                !
 ! A12   A(5,4,8)              122.21           estimate D2E/DX2                !
 ! A13   A(4,5,6)              120.72           estimate D2E/DX2                !
 ! A14   A(4,5,9)              119.7274         estimate D2E/DX2                !
 ! A15   A(6,5,9)              119.5526         estimate D2E/DX2                !
 ! A16   A(1,6,5)              121.3829         estimate D2E/DX2                !
 ! A17   A(1,6,10)             119.119          estimate D2E/DX2                !
 ! A18   A(5,6,10)             119.4981         estimate D2E/DX2                !
 ! A19   A(3,11,23)            114.8472         estimate D2E/DX2                !
 ! A20   A(3,11,25)            138.5037         estimate D2E/DX2                !
 ! A21   A(23,11,25)           106.6491         estimate D2E/DX2                !
 ! A22   A(2,12,23)             89.3757         estimate D2E/DX2                !
 ! A23   A(14,13,15)           116.1263         estimate D2E/DX2                !
 ! A24   A(14,13,23)           126.997          estimate D2E/DX2                !
 ! A25   A(15,13,23)           116.8766         estimate D2E/DX2                !
 ! A26   A(13,14,16)           121.3582         estimate D2E/DX2                !
 ! A27   A(13,14,17)           119.4056         estimate D2E/DX2                !
 ! A28   A(16,14,17)           119.2362         estimate D2E/DX2                !
 ! A29   A(13,15,18)           120.379          estimate D2E/DX2                !
 ! A30   A(13,15,24)           121.562          estimate D2E/DX2                !
 ! A31   A(18,15,24)           118.059          estimate D2E/DX2                !
 ! A32   A(14,16,19)           122.1194         estimate D2E/DX2                !
 ! A33   A(14,16,20)           118.5635         estimate D2E/DX2                !
 ! A34   A(19,16,20)           119.3171         estimate D2E/DX2                !
 ! A35   A(15,18,19)           121.0483         estimate D2E/DX2                !
 ! A36   A(15,18,21)           116.4315         estimate D2E/DX2                !
 ! A37   A(19,18,21)           122.5202         estimate D2E/DX2                !
 ! A38   A(16,19,18)           118.9688         estimate D2E/DX2                !
 ! A39   A(16,19,22)           120.3549         estimate D2E/DX2                !
 ! A40   A(18,19,22)           120.6763         estimate D2E/DX2                !
 ! A41   A(11,23,12)           111.6052         estimate D2E/DX2                !
 ! A42   A(11,23,13)           117.3681         estimate D2E/DX2                !
 ! A43   A(12,23,13)           131.0267         estimate D2E/DX2                !
 ! A44   A(15,24,25)           104.4239         estimate D2E/DX2                !
 ! A45   A(11,25,24)           153.1202         estimate D2E/DX2                !
 ! D1    D(6,1,2,3)              0.0            estimate D2E/DX2                !
 ! D2    D(6,1,2,12)          -179.9999         estimate D2E/DX2                !
 ! D3    D(7,1,2,3)            180.0            estimate D2E/DX2                !
 ! D4    D(7,1,2,12)             0.0            estimate D2E/DX2                !
 ! D5    D(2,1,6,5)              0.0            estimate D2E/DX2                !
 ! D6    D(2,1,6,10)           180.0            estimate D2E/DX2                !
 ! D7    D(7,1,6,5)           -179.9999         estimate D2E/DX2                !
 ! D8    D(7,1,6,10)             0.0001         estimate D2E/DX2                !
 ! D9    D(1,2,3,4)             -0.0001         estimate D2E/DX2                !
 ! D10   D(1,2,3,11)           179.9999         estimate D2E/DX2                !
 ! D11   D(12,2,3,4)           179.9999         estimate D2E/DX2                !
 ! D12   D(12,2,3,11)           -0.0001         estimate D2E/DX2                !
 ! D13   D(1,2,12,23)         -180.0            estimate D2E/DX2                !
 ! D14   D(3,2,12,23)            0.0            estimate D2E/DX2                !
 ! D15   D(2,3,4,5)              0.0001         estimate D2E/DX2                !
 ! D16   D(2,3,4,8)           -179.9999         estimate D2E/DX2                !
 ! D17   D(11,3,4,5)          -179.9999         estimate D2E/DX2                !
 ! D18   D(11,3,4,8)             0.0            estimate D2E/DX2                !
 ! D19   D(2,3,11,23)            0.0001         estimate D2E/DX2                !
 ! D20   D(2,3,11,25)          179.9991         estimate D2E/DX2                !
 ! D21   D(4,3,11,23)         -179.9998         estimate D2E/DX2                !
 ! D22   D(4,3,11,25)           -0.0009         estimate D2E/DX2                !
 ! D23   D(3,4,5,6)              0.0            estimate D2E/DX2                !
 ! D24   D(3,4,5,9)            180.0            estimate D2E/DX2                !
 ! D25   D(8,4,5,6)           -180.0            estimate D2E/DX2                !
 ! D26   D(8,4,5,9)              0.0            estimate D2E/DX2                !
 ! D27   D(4,5,6,1)             -0.0001         estimate D2E/DX2                !
 ! D28   D(4,5,6,10)           180.0            estimate D2E/DX2                !
 ! D29   D(9,5,6,1)            180.0            estimate D2E/DX2                !
 ! D30   D(9,5,6,10)             0.0            estimate D2E/DX2                !
 ! D31   D(3,11,23,12)          -0.0001         estimate D2E/DX2                !
 ! D32   D(3,11,23,13)         179.9997         estimate D2E/DX2                !
 ! D33   D(25,11,23,12)       -179.9994         estimate D2E/DX2                !
 ! D34   D(25,11,23,13)          0.0004         estimate D2E/DX2                !
 ! D35   D(3,11,25,24)        -179.9985         estimate D2E/DX2                !
 ! D36   D(23,11,25,24)          0.0005         estimate D2E/DX2                !
 ! D37   D(2,12,23,11)           0.0            estimate D2E/DX2                !
 ! D38   D(2,12,23,13)        -179.9997         estimate D2E/DX2                !
 ! D39   D(15,13,14,16)         -0.001          estimate D2E/DX2                !
 ! D40   D(15,13,14,17)        179.9993         estimate D2E/DX2                !
 ! D41   D(23,13,14,16)        179.9989         estimate D2E/DX2                !
 ! D42   D(23,13,14,17)         -0.0008         estimate D2E/DX2                !
 ! D43   D(14,13,15,18)          0.0011         estimate D2E/DX2                !
 ! D44   D(14,13,15,24)       -179.9989         estimate D2E/DX2                !
 ! D45   D(23,13,15,18)       -179.9988         estimate D2E/DX2                !
 ! D46   D(23,13,15,24)          0.0012         estimate D2E/DX2                !
 ! D47   D(14,13,23,11)        179.9991         estimate D2E/DX2                !
 ! D48   D(14,13,23,12)         -0.0012         estimate D2E/DX2                !
 ! D49   D(15,13,23,11)         -0.0011         estimate D2E/DX2                !
 ! D50   D(15,13,23,12)        179.9987         estimate D2E/DX2                !
 ! D51   D(13,14,16,19)          0.0002         estimate D2E/DX2                !
 ! D52   D(13,14,16,20)       -179.9997         estimate D2E/DX2                !
 ! D53   D(17,14,16,19)        179.9999         estimate D2E/DX2                !
 ! D54   D(17,14,16,20)          0.0            estimate D2E/DX2                !
 ! D55   D(13,15,18,19)         -0.0004         estimate D2E/DX2                !
 ! D56   D(13,15,18,21)        179.9997         estimate D2E/DX2                !
 ! D57   D(24,15,18,19)        179.9996         estimate D2E/DX2                !
 ! D58   D(24,15,18,21)         -0.0003         estimate D2E/DX2                !
 ! D59   D(13,15,24,25)         -0.0005         estimate D2E/DX2                !
 ! D60   D(18,15,24,25)        179.9995         estimate D2E/DX2                !
 ! D61   D(14,16,19,18)          0.0005         estimate D2E/DX2                !
 ! D62   D(14,16,19,22)       -179.9997         estimate D2E/DX2                !
 ! D63   D(20,16,19,18)       -179.9996         estimate D2E/DX2                !
 ! D64   D(20,16,19,22)          0.0002         estimate D2E/DX2                !
 ! D65   D(15,18,19,16)         -0.0003         estimate D2E/DX2                !
 ! D66   D(15,18,19,22)        179.9998         estimate D2E/DX2                !
 ! D67   D(21,18,19,16)        179.9995         estimate D2E/DX2                !
 ! D68   D(21,18,19,22)         -0.0003         estimate D2E/DX2                !
 ! D69   D(15,24,25,11)         -0.0004         estimate D2E/DX2                !
 ! Qtot  GIC-1                  10.0            Frozen                          !
 ! Ptot  GIC-2                -140.0            Frozen                          !
 --------------------------------------------------------------------------------
 NOTE: GIC-type coordinates are in arbitrary units.
 Trust Radius=3.00D-01 FncErr=5.00D-06 GrdErr=5.00D-06 EigMax=2.50D+02 EigMin=1.00D-04
 Number of steps in this run=    150 maximum allowed number of steps=    150.
 GradGradGradGradGradGradGradGradGradGradGradGradGradGradGradGradGradGrad

 Leave Link  103 at Tue Oct 27 20:22:12 2020, MaxMem=  7784628224 cpu:               0.2 elap:               0.0
 (Enter /gpfs/loomis/apps/avx/software/Gaussian/16-C.01_AVX/g16/l202.exe)
                          Input orientation:                          
 ---------------------------------------------------------------------
 Center     Atomic      Atomic             Coordinates (Angstroms)
 Number     Number       Type             X           Y           Z
 ---------------------------------------------------------------------
      1          6           0        1.762908   -3.273223   -0.000025
      2          6           0        1.002432   -2.098743   -0.000021
      3          6           0        1.653352   -0.832972   -0.000018
      4          6           0        3.062853   -0.739793   -0.000017
      5          6           0        3.802112   -1.911268   -0.000022
      6          6           0        3.161746   -3.166648   -0.000026
      7          1           0        1.284425   -4.257832   -0.000027
      8          1           0        3.534693    0.247840   -0.000014
      9          1           0        4.894879   -1.863049   -0.000021
     10          1           0        3.764862   -4.078692   -0.000030
     11          7           0        0.823628    0.222871   -0.000015
     12         16           0       -0.754646   -1.862228   -0.000016
     13          6           0       -1.428058    0.994390   -0.000002
     14          6           0       -2.833954    0.903829   -0.000016
     15          6           0       -0.856721    2.377767    0.000029
     16          6           0       -3.642893    2.057236    0.000020
     17          1           0       -3.309183   -0.082744   -0.000050
     18          6           0       -1.712149    3.505559    0.000067
     19          6           0       -3.095569    3.356933    0.000066
     20          1           0       -4.729345    1.933829    0.000013
     21          1           0       -1.225859    4.485691    0.000094
     22          1           0       -3.750024    4.231496    0.000098
     23          6           0       -0.496330   -0.089508   -0.000012
     24          8           0        0.416727    2.582224    0.000024
     25          1           0        0.896893    1.480294    0.000002
 ---------------------------------------------------------------------
                    Distance matrix (angstroms):
                    1          2          3          4          5
     1  C    0.000000
     2  C    1.399188   0.000000
     3  C    2.442710   1.423332   0.000000
     4  C    2.847477   2.468214   1.412578   0.000000
     5  C    2.452199   2.805950   2.404141   1.385228   0.000000
     6  C    1.402892   2.408953   2.778722   2.428869   1.409272
     7  H    1.094715   2.177426   3.444674   3.942005   3.441673
     8  H    3.941714   3.452361   2.169700   1.094555   2.175605
     9  H    3.434798   3.899576   3.401258   2.148959   1.093830
    10  H    2.157916   3.398708   3.872102   3.411900   2.167744
    11  N    3.620072   2.328489   1.342849   2.437386   3.664139
    12  S    2.885998   1.772925   2.618744   3.979090   4.557022
    13  C    5.328676   3.933797   3.582504   4.814112   5.983104
    14  C    6.211192   4.871684   4.811693   6.121587   7.208478
    15  C    6.228655   4.847225   4.075451   5.008217   6.332499
    16  C    7.591869   6.233074   6.033532   7.265700   8.436654
    17  H    5.992100   4.759651   5.018923   6.405822   7.342617
    18  C    7.617606   6.227131   5.490851   6.389340   7.729754
    19  C    8.219718   6.823344   6.333052   7.396575   8.679398
    20  H    8.322424   7.008203   6.956580   8.238119   9.357913
    21  H    8.314654   6.951263   6.047976   6.760084   8.136435
    22  H    9.311994   7.915667   7.405762   8.433802   9.734902
    23  C    3.903870   2.506654   2.274614   3.618101   4.668556
    24  O    6.008200   4.717469   3.632190   4.247091   5.626038
    25  H    4.831760   3.580593   2.433809   3.101640   4.465758
                    6          7          8          9         10
     6  C    0.000000
     7  H    2.171409   0.000000
     8  H    3.434795   5.036347   0.000000
     9  H    2.168668   4.332478   2.511167   0.000000
    10  H    1.093423   2.486898   4.332650   2.487169   0.000000
    11  N    4.117721   4.504335   2.711180   4.574510   5.210978
    12  S    4.127909   3.145906   4.780252   5.649525   5.033753
    13  C    6.195203   5.911294   5.018589   6.938623   7.259654
    14  C    7.246875   6.603317   6.402342   8.209170   8.268609
    15  C    6.847526   6.972494   4.880687   7.146007   7.940081
    16  C    8.578582   8.009903   7.402138   9.394796   9.618963
    17  H    7.168220   6.207463   6.851855   8.395006   8.124637
    18  C    8.262760   8.321641   6.175928   8.513212   9.355133
    19  C    9.039419   8.784588   7.323034   9.544395  10.117017
    20  H    9.395966   8.631459   8.434269  10.346109  10.406823
    21  H    8.820961   9.096742   6.373557   8.818726   9.912414
    22  H   10.124480   9.869872   8.302808  10.577232  11.204140
    23  C    4.780199   4.532771   4.045114   5.675437   5.837067
    24  O    6.370609   6.894873   3.895005   6.309858   7.455053
    25  H    5.169490   5.751197   2.911517   5.211702   6.255204
                   11         12         13         14         15
    11  N    0.000000
    12  S    2.615068   0.000000
    13  C    2.380196   2.934919   0.000000
    14  C    3.720432   3.460433   1.408810   0.000000
    15  C    2.732609   4.241223   1.496716   2.466160   0.000000
    16  C    4.828531   4.868693   2.456651   1.408804   2.804549
    17  H    4.144096   3.113234   2.167682   1.095065   3.474001
    18  C    4.148037   5.452518   2.527188   2.833275   1.415512
    19  C    5.018212   5.720102   2.891747   2.467015   2.443605
    20  H    5.810585   5.496206   3.432352   2.157176   3.897987
    21  H    4.729908   6.365384   3.497151   3.926283   2.140001
    22  H    6.081725   6.790123   3.983765   3.451457   3.436207
    23  C    1.356418   1.791441   1.429319   2.539922   2.493457
    24  O    2.394184   4.596223   2.434019   3.658406   1.289756
    25  H    1.259556   3.728274   2.375184   3.775120   1.969928
                   16         17         18         19         20
    16  C    0.000000
    17  H    2.165842   0.000000
    18  C    2.413589   3.927650   0.000000
    19  C    1.410240   3.446303   1.391381   0.000000
    20  H    1.093439   2.466460   3.402030   2.166668   0.000000
    21  H    3.426288   5.021039   1.094137   2.184012   4.334330
    22  H    2.176898   4.336704   2.163312   1.092324   2.497668
    23  C    3.809117   2.812861   3.795092   4.316712   4.691728
    24  O    4.093425   4.580879   2.320487   3.596720   5.186760
    25  H    4.576300   4.487110   3.302847   4.411522   5.644488
                   21         22         23         24         25
    21  H    0.000000
    22  H    2.536932   0.000000
    23  C    4.632996   5.409030   0.000000
    24  O    2.514214   4.481284   2.823442   0.000000
    25  H    3.679468   5.400273   2.098892   1.202002   0.000000
 Symmetry turned off by external request.
 Stoichiometry    C13H9NOS
 Framework group  C1[X(C13H9NOS)]
 Deg. of freedom    69
 Full point group                 C1      NOp   1
 Rotational constants (GHZ):           1.3427711           0.2852393           0.2352633
 Leave Link  202 at Tue Oct 27 20:22:12 2020, MaxMem=  7784628224 cpu:               0.2 elap:               0.1
 (Enter /gpfs/loomis/apps/avx/software/Gaussian/16-C.01_AVX/g16/l301.exe)
 Standard basis: CC-pVDZ (5D, 7F)
 Ernie: Thresh=  0.10000D-02 Tol=  0.10000D-05 Strict=F.
 Ernie:  40 primitive shells out of 425 were deleted.
   273 basis functions,   629 primitive gaussians,   289 cartesian basis functions
    59 alpha electrons       59 beta electrons
       nuclear repulsion energy      1093.9610403186 Hartrees.
 IExCor= 4639 DFT=T Ex+Corr=wB97XD ExCW=0 ScaHFX=  1.000000
 ScaDFX=  1.000000  1.000000  1.000000  1.000000 ScalE2=  1.000000  1.000000
 IRadAn=      5 IRanWt=     -1 IRanGd=            0 ICorTp=0 IEmpDi=121
 HFx  wShort=  0.000000 wLong=  0.200000 cFull=  0.222036 cShort=  0.000000 cLong=  0.777964
 DFx  wShort=  0.000000 wLong=  0.200000 cFull=  0.000000 cShort=  0.000000 cLong=  1.000000
 NAtoms=   25 NActive=   25 NUniq=   25 SFac= 1.00D+00 NAtFMM=   60 NAOKFM=F Big=F
 Integral buffers will be    131072 words long.
 Raffenetti 2 integral format.
 Two-electron integral symmetry is turned off.
 R6Disp:  Grimme-D2 Dispersion energy=       -0.0140392925 Hartrees.
 Nuclear repulsion after empirical dispersion term =     1093.9470010262 Hartrees.
 ------------------------------------------------------------------------------
 Polarizable Continuum Model (PCM)
 =================================
 Model                : PCM.
 Atomic radii         : UFF (Universal Force Field).
 Polarization charges : Total charges.
 Charge compensation  : None.
 Solution method      : On-the-fly selection.
 Cavity type          : Scaled VdW (van der Waals Surface) (Alpha=1.100).
 Cavity algorithm     : GePol (No added spheres)
                        Default sphere list used, NSphG=   25.
                        Lebedev-Laikov grids with approx.  5.0 points / Ang**2.
                        Smoothing algorithm: York/Karplus (Gamma=1.0000).
                        Polarization charges: spherical gaussians, with
                                              point-specific exponents (IZeta= 3).
                        Self-potential: point-specific (ISelfS= 7).
                        Self-field    : sphere-specific E.n sum rule (ISelfD= 2).
 1st derivatives      : Analytical E(r).r(x)/FMM algorithm (CHGder, D1EAlg=3).
                        Cavity 1st derivative terms included.
 Solvent              : CarbonTetraChloride, Eps=   2.228000 Eps(inf)=   2.131892
 ------------------------------------------------------------------------------
 GePol: Number of generator spheres                  =      25
 GePol: Total number of spheres                      =      25
 GePol: Number of exposed spheres                    =      25 (100.00%)
 GePol: Number of points                             =    2200
 GePol: Average weight of points                     =       0.13
 GePol: Minimum weight of points                     =   0.19D-10
 GePol: Maximum weight of points                     =    0.20577
 GePol: Number of points with low weight             =     131
 GePol: Fraction of low-weight points (<1% of avg)   =       5.95%
 GePol: Cavity surface area                          =    276.456 Ang**2
 GePol: Cavity volume                                =    295.183 Ang**3
 Leave Link  301 at Tue Oct 27 20:22:12 2020, MaxMem=  7784628224 cpu:               1.0 elap:               0.2
 (Enter /gpfs/loomis/apps/avx/software/Gaussian/16-C.01_AVX/g16/l302.exe)
 NPDir=0 NMtPBC=     1 NCelOv=     1 NCel=       1 NClECP=     1 NCelD=      1
         NCelK=      1 NCelE2=     1 NClLst=     1 CellRange=     0.0.
 One-electron integrals computed using PRISM.
 NBasis=   273 RedAO= T EigKep=  3.18D-04  NBF=   273
 NBsUse=   273 1.00D-06 EigRej= -1.00D+00 NBFU=   273
 Precomputing XC quadrature grid using
 IXCGrd= 4 IRadAn=           5 IRanWt=          -1 IRanGd=           0 AccXCQ= 0.00D+00.
 Generated NRdTot=       0 NPtTot=           0 NUsed=           0 NTot=          32
 NSgBfM=   288   288   288   288   288 MxSgAt=    25 MxSgA2=    25.
 Leave Link  302 at Tue Oct 27 20:22:13 2020, MaxMem=  7784628224 cpu:               8.3 elap:               1.1
 (Enter /gpfs/loomis/apps/avx/software/Gaussian/16-C.01_AVX/g16/l303.exe)
 DipDrv:  MaxL=1.
 Leave Link  303 at Tue Oct 27 20:22:13 2020, MaxMem=  7784628224 cpu:               0.5 elap:               0.1
 (Enter /gpfs/loomis/apps/avx/software/Gaussian/16-C.01_AVX/g16/l401.exe)
 ExpMin= 1.22D-01 ExpMax= 1.11D+05 ExpMxC= 1.07D+03 IAcc=3 IRadAn=         5 AccDes= 0.00D+00
 Harris functional with IExCor= 4639 and IRadAn=       5 diagonalized for initial guess.
 HarFok:  IExCor= 4639 AccDes= 0.00D+00 IRadAn=         5 IDoV= 1 UseB2=F ITyADJ=14
 ICtDFT=  3500011 ScaDFX=  1.000000  1.000000  1.000000  1.000000
 FoFCou: FMM=F IPFlag=           0 FMFlag=      100000 FMFlg1=           0
         NFxFlg=           0 DoJE=T BraDBF=F KetDBF=T FulRan=T
         wScrn=  0.000000 ICntrl=       500 IOpCl=  0 I1Cent=   200000004 NGrid=           0
         NMat0=    1 NMatS0=      1 NMatT0=    0 NMatD0=    1 NMtDS0=    0 NMtDT0=    0
 Symmetry not used in FoFCou.
 Harris En= -994.462409977853    
 JPrj=0 DoOrth=F DoCkMO=F.
 Leave Link  401 at Tue Oct 27 20:22:15 2020, MaxMem=  7784628224 cpu:              14.2 elap:               1.6
 (Enter /gpfs/loomis/apps/avx/software/Gaussian/16-C.01_AVX/g16/l502.exe)
 Two-electron integral symmetry not used.
 Closed shell SCF:
 Using DIIS extrapolation, IDIIS=  1040.
 NGot=  7784628224 LenX=  7784455381 LenY=  7784371419
 Requested convergence on RMS density matrix=1.00D-08 within 128 cycles.
 Requested convergence on MAX density matrix=1.00D-06.
 Requested convergence on             energy=1.00D-06.
 No special actions if energy rises.
 Fock matrices will be formed incrementally for  20 cycles.

 Cycle   1  Pass 1  IDiag  1:
 FoFJK:  IHMeth= 1 ICntrl=       0 DoSepK=T KAlg= 0 I1Cent=           0 FoldK=F
 IRaf=         1 NMat=       1 IRICut=       1 DoRegI=T DoRafI=F ISym2E= 0 IDoP0=0 IntGTp=1.
 FoFCou: FMM=F IPFlag=           0 FMFlag=      100000 FMFlg1=           0
         NFxFlg=           0 DoJE=T BraDBF=F KetDBF=F FulRan=T
         wScrn=  0.000000 ICntrl=       500 IOpCl=  0 I1Cent=           0 NGrid=           0
         NMat0=    1 NMatS0=      1 NMatT0=    0 NMatD0=    1 NMtDS0=    0 NMtDT0=    0
 Symmetry not used in FoFCou.
 Inv3:  Mode=1 IEnd=    14520000.
 Iteration    1 A*A^-1 deviation from unit magnitude is 4.66D-15 for   2175.
 Iteration    1 A*A^-1 deviation from orthogonality  is 1.77D-15 for   1629     22.
 Iteration    1 A^-1*A deviation from unit magnitude is 4.55D-15 for   2175.
 Iteration    1 A^-1*A deviation from orthogonality  is 1.56D-15 for   1428    217.
 E= -1028.56758294633    
 DIIS: error= 3.70D-02 at cycle   1 NSaved=   1.
 NSaved= 1 IEnMin= 1 EnMin= -1028.56758294633     IErMin= 1 ErrMin= 3.70D-02
 ErrMax= 3.70D-02  0.00D+00 EMaxC= 1.00D-01 BMatC= 3.92D-01 BMatP= 3.92D-01
 IDIUse=3 WtCom= 6.30D-01 WtEn= 3.70D-01
 Coeff-Com:  0.100D+01
 Coeff-En:   0.100D+01
 Coeff:      0.100D+01
 Gap=     0.340 Goal=   None    Shift=    0.000
 GapD=    0.340 DampG=1.000 DampE=0.500 DampFc=0.5000 IDamp=-1.
 Damping current iteration by 5.00D-01
 RMSDP=3.53D-03 MaxDP=2.28D-01              OVMax= 1.80D-01

 Cycle   2  Pass 1  IDiag  1:
 RMSU=  1.76D-03    CP:  9.93D-01
 E= -1028.68675180435     Delta-E=       -0.119168858024 Rises=F Damp=T
 DIIS: error= 1.04D-02 at cycle   2 NSaved=   2.
 NSaved= 2 IEnMin= 2 EnMin= -1028.68675180435     IErMin= 2 ErrMin= 1.04D-02
 ErrMax= 1.04D-02  0.00D+00 EMaxC= 1.00D-01 BMatC= 5.79D-02 BMatP= 3.92D-01
 IDIUse=3 WtCom= 8.96D-01 WtEn= 1.04D-01
 Coeff-Com: -0.293D+00 0.129D+01
 Coeff-En:   0.000D+00 0.100D+01
 Coeff:     -0.262D+00 0.126D+01
 Gap=     0.298 Goal=   None    Shift=    0.000
 RMSDP=1.14D-03 MaxDP=2.40D-02 DE=-1.19D-01 OVMax= 1.19D-01

 Cycle   3  Pass 1  IDiag  1:
 RMSU=  1.09D-03    CP:  9.92D-01  1.19D+00
 E= -1028.79219259759     Delta-E=       -0.105440793237 Rises=F Damp=F
 DIIS: error= 6.41D-03 at cycle   3 NSaved=   3.
 NSaved= 3 IEnMin= 3 EnMin= -1028.79219259759     IErMin= 3 ErrMin= 6.41D-03
 ErrMax= 6.41D-03  0.00D+00 EMaxC= 1.00D-01 BMatC= 1.38D-02 BMatP= 5.79D-02
 IDIUse=3 WtCom= 9.36D-01 WtEn= 6.41D-02
 Coeff-Com: -0.203D+00 0.486D+00 0.718D+00
 Coeff-En:   0.000D+00 0.000D+00 0.100D+01
 Coeff:     -0.190D+00 0.455D+00 0.736D+00
 Gap=     0.255 Goal=   None    Shift=    0.000
 RMSDP=5.24D-04 MaxDP=1.53D-02 DE=-1.05D-01 OVMax= 3.89D-02

 Cycle   4  Pass 1  IDiag  1:
 RMSU=  4.09D-04    CP:  9.90D-01  1.35D+00  8.47D-01
 E= -1028.80539320485     Delta-E=       -0.013200607264 Rises=F Damp=F
 DIIS: error= 2.27D-03 at cycle   4 NSaved=   4.
 NSaved= 4 IEnMin= 4 EnMin= -1028.80539320485     IErMin= 4 ErrMin= 2.27D-03
 ErrMax= 2.27D-03  0.00D+00 EMaxC= 1.00D-01 BMatC= 1.65D-03 BMatP= 1.38D-02
 IDIUse=3 WtCom= 9.77D-01 WtEn= 2.27D-02
 Coeff-Com: -0.722D-01 0.143D+00 0.349D+00 0.580D+00
 Coeff-En:   0.000D+00 0.000D+00 0.000D+00 0.100D+01
 Coeff:     -0.705D-01 0.140D+00 0.341D+00 0.589D+00
 Gap=     0.253 Goal=   None    Shift=    0.000
 RMSDP=1.65D-04 MaxDP=9.62D-03 DE=-1.32D-02 OVMax= 1.32D-02

 Cycle   5  Pass 1  IDiag  1:
 RMSU=  1.06D-04    CP:  9.90D-01  1.36D+00  9.15D-01  7.54D-01
 E= -1028.80715522431     Delta-E=       -0.001762019452 Rises=F Damp=F
 DIIS: error= 4.04D-04 at cycle   5 NSaved=   5.
 NSaved= 5 IEnMin= 5 EnMin= -1028.80715522431     IErMin= 5 ErrMin= 4.04D-04
 ErrMax= 4.04D-04  0.00D+00 EMaxC= 1.00D-01 BMatC= 5.34D-05 BMatP= 1.65D-03
 IDIUse=3 WtCom= 9.96D-01 WtEn= 4.04D-03
 Coeff-Com: -0.148D-02-0.312D-02 0.337D-01 0.162D+00 0.809D+00
 Coeff-En:   0.000D+00 0.000D+00 0.000D+00 0.000D+00 0.100D+01
 Coeff:     -0.147D-02-0.311D-02 0.335D-01 0.162D+00 0.809D+00
 Gap=     0.253 Goal=   None    Shift=    0.000
 RMSDP=5.21D-05 MaxDP=1.53D-03 DE=-1.76D-03 OVMax= 5.23D-03

 Cycle   6  Pass 1  IDiag  1:
 RMSU=  3.36D-05    CP:  9.89D-01  1.37D+00  9.33D-01  8.36D-01  1.07D+00
 E= -1028.80726836839     Delta-E=       -0.000113144086 Rises=F Damp=F
 DIIS: error= 1.65D-04 at cycle   6 NSaved=   6.
 NSaved= 6 IEnMin= 6 EnMin= -1028.80726836839     IErMin= 6 ErrMin= 1.65D-04
 ErrMax= 1.65D-04  0.00D+00 EMaxC= 1.00D-01 BMatC= 8.89D-06 BMatP= 5.34D-05
 IDIUse=3 WtCom= 9.98D-01 WtEn= 1.65D-03
 Coeff-Com:  0.149D-01-0.308D-01-0.592D-01-0.634D-01 0.204D+00 0.934D+00
 Coeff-En:   0.000D+00 0.000D+00 0.000D+00 0.000D+00 0.000D+00 0.100D+01
 Coeff:      0.149D-01-0.307D-01-0.591D-01-0.633D-01 0.204D+00 0.934D+00
 Gap=     0.254 Goal=   None    Shift=    0.000
 RMSDP=3.05D-05 MaxDP=1.50D-03 DE=-1.13D-04 OVMax= 2.82D-03

 Cycle   7  Pass 1  IDiag  1:
 RMSU=  1.55D-05    CP:  9.89D-01  1.37D+00  9.44D-01  8.66D-01  1.24D+00
                    CP:  1.27D+00
 E= -1028.80729622739     Delta-E=       -0.000027858995 Rises=F Damp=F
 DIIS: error= 9.65D-05 at cycle   7 NSaved=   7.
 NSaved= 7 IEnMin= 7 EnMin= -1028.80729622739     IErMin= 7 ErrMin= 9.65D-05
 ErrMax= 9.65D-05  0.00D+00 EMaxC= 1.00D-01 BMatC= 1.95D-06 BMatP= 8.89D-06
 IDIUse=1 WtCom= 1.00D+00 WtEn= 0.00D+00
 Coeff-Com:  0.630D-02-0.120D-01-0.284D-01-0.463D-01-0.156D-01 0.393D+00
 Coeff-Com:  0.703D+00
 Coeff:      0.630D-02-0.120D-01-0.284D-01-0.463D-01-0.156D-01 0.393D+00
 Coeff:      0.703D+00
 Gap=     0.254 Goal=   None    Shift=    0.000
 RMSDP=1.01D-05 MaxDP=3.96D-04 DE=-2.79D-05 OVMax= 1.33D-03

 Cycle   8  Pass 1  IDiag  1:
 RMSU=  6.14D-06    CP:  9.89D-01  1.37D+00  9.46D-01  8.72D-01  1.27D+00
                    CP:  1.45D+00  1.13D+00
 E= -1028.80730037417     Delta-E=       -0.000004146784 Rises=F Damp=F
 DIIS: error= 4.15D-05 at cycle   8 NSaved=   8.
 NSaved= 8 IEnMin= 8 EnMin= -1028.80730037417     IErMin= 8 ErrMin= 4.15D-05
 ErrMax= 4.15D-05  0.00D+00 EMaxC= 1.00D-01 BMatC= 3.54D-07 BMatP= 1.95D-06
 IDIUse=1 WtCom= 1.00D+00 WtEn= 0.00D+00
 Coeff-Com: -0.125D-02 0.277D-02 0.409D-02 0.837D-03-0.406D-01-0.737D-01
 Coeff-Com:  0.254D+00 0.854D+00
 Coeff:     -0.125D-02 0.277D-02 0.409D-02 0.837D-03-0.406D-01-0.737D-01
 Coeff:      0.254D+00 0.854D+00
 Gap=     0.254 Goal=   None    Shift=    0.000
 RMSDP=5.22D-06 MaxDP=1.42D-04 DE=-4.15D-06 OVMax= 7.39D-04

 Cycle   9  Pass 1  IDiag  1:
 RMSU=  2.44D-06    CP:  9.89D-01  1.37D+00  9.45D-01  8.71D-01  1.28D+00
                    CP:  1.53D+00  1.35D+00  1.16D+00
 E= -1028.80730134757     Delta-E=       -0.000000973397 Rises=F Damp=F
 DIIS: error= 1.89D-05 at cycle   9 NSaved=   9.
 NSaved= 9 IEnMin= 9 EnMin= -1028.80730134757     IErMin= 9 ErrMin= 1.89D-05
 ErrMax= 1.89D-05  0.00D+00 EMaxC= 1.00D-01 BMatC= 4.81D-08 BMatP= 3.54D-07
 IDIUse=1 WtCom= 1.00D+00 WtEn= 0.00D+00
 Coeff-Com: -0.118D-02 0.234D-02 0.494D-02 0.668D-02-0.982D-02-0.864D-01
 Coeff-Com: -0.122D-01 0.241D+00 0.855D+00
 Coeff:     -0.118D-02 0.234D-02 0.494D-02 0.668D-02-0.982D-02-0.864D-01
 Coeff:     -0.122D-01 0.241D+00 0.855D+00
 Gap=     0.254 Goal=   None    Shift=    0.000
 RMSDP=2.52D-06 MaxDP=6.04D-05 DE=-9.73D-07 OVMax= 4.21D-04

 Cycle  10  Pass 1  IDiag  1:
 RMSU=  1.17D-06    CP:  9.89D-01  1.37D+00  9.45D-01  8.71D-01  1.28D+00
                    CP:  1.57D+00  1.44D+00  1.33D+00  1.26D+00
 E= -1028.80730155730     Delta-E=       -0.000000209733 Rises=F Damp=F
 DIIS: error= 8.43D-06 at cycle  10 NSaved=  10.
 NSaved=10 IEnMin=10 EnMin= -1028.80730155730     IErMin=10 ErrMin= 8.43D-06
 ErrMax= 8.43D-06  0.00D+00 EMaxC= 1.00D-01 BMatC= 1.59D-08 BMatP= 4.81D-08
 IDIUse=1 WtCom= 1.00D+00 WtEn= 0.00D+00
 Coeff-Com: -0.172D-03 0.286D-03 0.102D-02 0.256D-02 0.498D-02-0.216D-01
 Coeff-Com: -0.500D-01-0.108D+00 0.346D+00 0.825D+00
 Coeff:     -0.172D-03 0.286D-03 0.102D-02 0.256D-02 0.498D-02-0.216D-01
 Coeff:     -0.500D-01-0.108D+00 0.346D+00 0.825D+00
 Gap=     0.254 Goal=   None    Shift=    0.000
 RMSDP=1.38D-06 MaxDP=3.29D-05 DE=-2.10D-07 OVMax= 2.28D-04

 Cycle  11  Pass 1  IDiag  1:
 RMSU=  5.42D-07    CP:  9.89D-01  1.37D+00  9.45D-01  8.71D-01  1.29D+00
                    CP:  1.58D+00  1.48D+00  1.42D+00  1.58D+00  1.20D+00
 E= -1028.80730161386     Delta-E=       -0.000000056561 Rises=F Damp=F
 DIIS: error= 4.51D-06 at cycle  11 NSaved=  11.
 NSaved=11 IEnMin=11 EnMin= -1028.80730161386     IErMin=11 ErrMin= 4.51D-06
 ErrMax= 4.51D-06  0.00D+00 EMaxC= 1.00D-01 BMatC= 2.40D-09 BMatP= 1.59D-08
 IDIUse=1 WtCom= 1.00D+00 WtEn= 0.00D+00
 Coeff-Com:  0.253D-03-0.520D-03-0.929D-03-0.834D-03 0.453D-02 0.111D-01
 Coeff-Com: -0.605D-02-0.907D-01-0.577D-01 0.218D+00 0.923D+00
 Coeff:      0.253D-03-0.520D-03-0.929D-03-0.834D-03 0.453D-02 0.111D-01
 Coeff:     -0.605D-02-0.907D-01-0.577D-01 0.218D+00 0.923D+00
 Gap=     0.254 Goal=   None    Shift=    0.000
 RMSDP=6.28D-07 MaxDP=1.71D-05 DE=-5.66D-08 OVMax= 1.19D-04

 Cycle  12  Pass 1  IDiag  1:
 RMSU=  2.17D-07    CP:  9.89D-01  1.37D+00  9.45D-01  8.72D-01  1.29D+00
                    CP:  1.58D+00  1.49D+00  1.45D+00  1.74D+00  1.49D+00
                    CP:  1.17D+00
 E= -1028.80730162542     Delta-E=       -0.000000011560 Rises=F Damp=F
 DIIS: error= 1.29D-06 at cycle  12 NSaved=  12.
 NSaved=12 IEnMin=12 EnMin= -1028.80730162542     IErMin=12 ErrMin= 1.29D-06
 ErrMax= 1.29D-06  0.00D+00 EMaxC= 1.00D-01 BMatC= 6.41D-10 BMatP= 2.40D-09
 IDIUse=1 WtCom= 1.00D+00 WtEn= 0.00D+00
 Coeff-Com:  0.126D-03-0.246D-03-0.540D-03-0.849D-03 0.102D-02 0.825D-02
 Coeff-Com:  0.898D-02-0.180D-01-0.942D-01-0.117D+00 0.349D+00 0.863D+00
 Coeff:      0.126D-03-0.246D-03-0.540D-03-0.849D-03 0.102D-02 0.825D-02
 Coeff:      0.898D-02-0.180D-01-0.942D-01-0.117D+00 0.349D+00 0.863D+00
 Gap=     0.254 Goal=   None    Shift=    0.000
 RMSDP=3.27D-07 MaxDP=7.59D-06 DE=-1.16D-08 OVMax= 5.28D-05

 Cycle  13  Pass 1  IDiag  1:
 RMSU=  8.44D-08    CP:  9.89D-01  1.37D+00  9.45D-01  8.72D-01  1.29D+00
                    CP:  1.58D+00  1.50D+00  1.47D+00  1.82D+00  1.61D+00
                    CP:  1.45D+00  1.13D+00
 E= -1028.80730162764     Delta-E=       -0.000000002215 Rises=F Damp=F
 DIIS: error= 4.61D-07 at cycle  13 NSaved=  13.
 NSaved=13 IEnMin=13 EnMin= -1028.80730162764     IErMin=13 ErrMin= 4.61D-07
 ErrMax= 4.61D-07  0.00D+00 EMaxC= 1.00D-01 BMatC= 4.16D-11 BMatP= 6.41D-10
 IDIUse=1 WtCom= 1.00D+00 WtEn= 0.00D+00
 Coeff-Com: -0.812D-05 0.191D-04 0.128D-04-0.814D-04-0.231D-03 0.300D-03
 Coeff-Com:  0.335D-02 0.790D-02-0.899D-02-0.579D-01-0.477D-01 0.191D+00
 Coeff-Com:  0.913D+00
 Coeff:     -0.812D-05 0.191D-04 0.128D-04-0.814D-04-0.231D-03 0.300D-03
 Coeff:      0.335D-02 0.790D-02-0.899D-02-0.579D-01-0.477D-01 0.191D+00
 Coeff:      0.913D+00
 Gap=     0.254 Goal=   None    Shift=    0.000
 RMSDP=7.24D-08 MaxDP=1.91D-06 DE=-2.22D-09 OVMax= 1.06D-05

 Cycle  14  Pass 1  IDiag  1:
 RMSU=  2.89D-08    CP:  9.89D-01  1.37D+00  9.45D-01  8.72D-01  1.29D+00
                    CP:  1.58D+00  1.50D+00  1.47D+00  1.83D+00  1.64D+00
                    CP:  1.51D+00  1.28D+00  1.16D+00
 E= -1028.80730162776     Delta-E=       -0.000000000126 Rises=F Damp=F
 DIIS: error= 1.06D-07 at cycle  14 NSaved=  14.
 NSaved=14 IEnMin=14 EnMin= -1028.80730162776     IErMin=14 ErrMin= 1.06D-07
 ErrMax= 1.06D-07  0.00D+00 EMaxC= 1.00D-01 BMatC= 5.67D-12 BMatP= 4.16D-11
 IDIUse=1 WtCom= 1.00D+00 WtEn= 0.00D+00
 Coeff-Com: -0.124D-04 0.253D-04 0.473D-04 0.358D-04-0.150D-03-0.560D-03
 Coeff-Com:  0.440D-03 0.371D-02 0.450D-02-0.100D-01-0.411D-01-0.559D-02
 Coeff-Com:  0.314D+00 0.735D+00
 Coeff:     -0.124D-04 0.253D-04 0.473D-04 0.358D-04-0.150D-03-0.560D-03
 Coeff:      0.440D-03 0.371D-02 0.450D-02-0.100D-01-0.411D-01-0.559D-02
 Coeff:      0.314D+00 0.735D+00
 Gap=     0.254 Goal=   None    Shift=    0.000
 RMSDP=1.68D-08 MaxDP=4.53D-07 DE=-1.26D-10 OVMax= 1.67D-06

 Cycle  15  Pass 1  IDiag  1:
 RMSU=  1.09D-08    CP:  9.89D-01  1.37D+00  9.45D-01  8.72D-01  1.29D+00
                    CP:  1.58D+00  1.50D+00  1.47D+00  1.84D+00  1.64D+00
                    CP:  1.52D+00  1.31D+00  1.26D+00  1.05D+00
 E= -1028.80730162778     Delta-E=       -0.000000000015 Rises=F Damp=F
 DIIS: error= 6.31D-08 at cycle  15 NSaved=  15.
 NSaved=15 IEnMin=15 EnMin= -1028.80730162778     IErMin=15 ErrMin= 6.31D-08
 ErrMax= 6.31D-08  0.00D+00 EMaxC= 1.00D-01 BMatC= 9.87D-13 BMatP= 5.67D-12
 IDIUse=1 WtCom= 1.00D+00 WtEn= 0.00D+00
 Coeff-Com: -0.313D-05 0.585D-05 0.163D-04 0.282D-04-0.187D-04-0.317D-03
 Coeff-Com: -0.484D-03-0.494D-04 0.369D-02 0.725D-02-0.716D-02-0.403D-01
 Coeff-Com: -0.466D-01 0.276D+00 0.808D+00
 Coeff:     -0.313D-05 0.585D-05 0.163D-04 0.282D-04-0.187D-04-0.317D-03
 Coeff:     -0.484D-03-0.494D-04 0.369D-02 0.725D-02-0.716D-02-0.403D-01
 Coeff:     -0.466D-01 0.276D+00 0.808D+00
 Gap=     0.254 Goal=   None    Shift=    0.000
 RMSDP=8.02D-09 MaxDP=2.00D-07 DE=-1.52D-11 OVMax= 9.54D-07

 Error on total polarization charges =  0.00866
 SCF Done:  E(RwB97XD) =  -1028.80730163     A.U. after   15 cycles
            NFock= 15  Conv=0.80D-08     -V/T= 2.0052
 KE= 1.023524978517D+03 PE=-4.599829773849D+03 EE= 1.453550492678D+03
 Leave Link  502 at Tue Oct 27 20:23:44 2020, MaxMem=  7784628224 cpu:             847.5 elap:              88.7
 (Enter /gpfs/loomis/apps/avx/software/Gaussian/16-C.01_AVX/g16/l601.exe)
 Copying SCF densities to generalized density rwf, IOpCl= 0 IROHF=0.

 **********************************************************************

            Population analysis using the SCF Density.

 **********************************************************************

 Alpha  occ. eigenvalues --  -89.10082 -19.24815 -14.48794 -10.41066 -10.37307
 Alpha  occ. eigenvalues --  -10.35999 -10.35735 -10.33036 -10.32269 -10.32149
 Alpha  occ. eigenvalues --  -10.32086 -10.32034 -10.31981 -10.31474 -10.29910
 Alpha  occ. eigenvalues --  -10.29414  -8.11942  -6.06817  -6.06460  -6.05976
 Alpha  occ. eigenvalues --   -1.14251  -1.09642  -0.97102  -0.95021  -0.92204
 Alpha  occ. eigenvalues --   -0.88884  -0.85350  -0.83851  -0.81997  -0.75873
 Alpha  occ. eigenvalues --   -0.71380  -0.70517  -0.68512  -0.68268  -0.63483
 Alpha  occ. eigenvalues --   -0.60703  -0.59107  -0.57786  -0.55339  -0.54599
 Alpha  occ. eigenvalues --   -0.54231  -0.53286  -0.52419  -0.51219  -0.49899
 Alpha  occ. eigenvalues --   -0.49480  -0.47511  -0.46292  -0.45469  -0.44908
 Alpha  occ. eigenvalues --   -0.43908  -0.42960  -0.42030  -0.40561  -0.36546
 Alpha  occ. eigenvalues --   -0.35008  -0.32835  -0.31121  -0.27280
 Alpha virt. eigenvalues --   -0.01871   0.04370   0.06653   0.06661   0.08009
 Alpha virt. eigenvalues --    0.10533   0.12499   0.14876   0.15895   0.17704
 Alpha virt. eigenvalues --    0.18815   0.20636   0.21451   0.21943   0.22522
 Alpha virt. eigenvalues --    0.23271   0.24044   0.24418   0.28525   0.30082
 Alpha virt. eigenvalues --    0.31797   0.32844   0.35277   0.35836   0.36622
 Alpha virt. eigenvalues --    0.37946   0.38656   0.40413   0.43323   0.43662
 Alpha virt. eigenvalues --    0.46545   0.48022   0.49408   0.51545   0.51571
 Alpha virt. eigenvalues --    0.52291   0.53223   0.53847   0.54853   0.55067
 Alpha virt. eigenvalues --    0.55648   0.56009   0.56276   0.57221   0.58056
 Alpha virt. eigenvalues --    0.58195   0.58278   0.58960   0.59536   0.59906
 Alpha virt. eigenvalues --    0.60255   0.60939   0.62005   0.62119   0.62811
 Alpha virt. eigenvalues --    0.64925   0.65098   0.66866   0.67644   0.68835
 Alpha virt. eigenvalues --    0.69924   0.70325   0.71653   0.72399   0.72549
 Alpha virt. eigenvalues --    0.72710   0.74491   0.75166   0.76279   0.76531
 Alpha virt. eigenvalues --    0.78864   0.79425   0.79600   0.81814   0.82401
 Alpha virt. eigenvalues --    0.82549   0.87237   0.89282   0.90877   0.92471
 Alpha virt. eigenvalues --    0.94057   0.95087   0.95925   0.96216   0.96502
 Alpha virt. eigenvalues --    0.98456   0.98693   0.99723   1.00109   1.01237
 Alpha virt. eigenvalues --    1.02458   1.04746   1.05351   1.07157   1.07496
 Alpha virt. eigenvalues --    1.07755   1.08159   1.10045   1.10109   1.11690
 Alpha virt. eigenvalues --    1.11817   1.12236   1.13238   1.14915   1.15256
 Alpha virt. eigenvalues --    1.15977   1.18472   1.20145   1.22853   1.24284
 Alpha virt. eigenvalues --    1.26443   1.27148   1.32536   1.32971   1.34734
 Alpha virt. eigenvalues --    1.35128   1.35464   1.38472   1.41006   1.45864
 Alpha virt. eigenvalues --    1.48932   1.49416   1.50996   1.53644   1.55167
 Alpha virt. eigenvalues --    1.56176   1.56324   1.57140   1.58555   1.58859
 Alpha virt. eigenvalues --    1.59044   1.60028   1.64472   1.66126   1.67310
 Alpha virt. eigenvalues --    1.67957   1.68904   1.69615   1.69630   1.70070
 Alpha virt. eigenvalues --    1.71541   1.72335   1.73101   1.73469   1.74615
 Alpha virt. eigenvalues --    1.77261   1.78699   1.80334   1.80375   1.82145
 Alpha virt. eigenvalues --    1.82836   1.83678   1.84371   1.84517   1.85080
 Alpha virt. eigenvalues --    1.87529   1.88153   1.88410   1.90277   1.91557
 Alpha virt. eigenvalues --    1.92034   1.92116   1.93057   1.94252   1.95514
 Alpha virt. eigenvalues --    1.98251   1.99898   2.01116   2.03130   2.03739
 Alpha virt. eigenvalues --    2.04891   2.07142   2.08578   2.10415   2.11796
 Alpha virt. eigenvalues --    2.13973   2.16676   2.16685   2.20451   2.23663
 Alpha virt. eigenvalues --    2.26472   2.30330   2.32881   2.37891   2.39942
 Alpha virt. eigenvalues --    2.40944   2.41650   2.42397   2.45399   2.46500
 Alpha virt. eigenvalues --    2.47898   2.49863   2.52102   2.52760   2.61073
 Alpha virt. eigenvalues --    2.61367   2.70238   2.72887   2.73946   2.79525
 Alpha virt. eigenvalues --    2.81011   2.83123   2.84436   2.88728   2.92357
 Alpha virt. eigenvalues --    2.93114   3.01519   3.09851   3.22085   3.38603
 Alpha virt. eigenvalues --    3.47776   3.55271   3.58676   3.87585
          Condensed to atoms (all electrons):
               1          2          3          4          5          6
     1  C    4.734867   0.476233   0.001515  -0.048904  -0.013586   0.524989
     2  C    0.476233   5.325720   0.339145  -0.053089  -0.060845  -0.013731
     3  C    0.001515   0.339145   4.757765   0.511502  -0.007789  -0.061530
     4  C   -0.048904  -0.053089   0.511502   4.781661   0.523075  -0.018494
     5  C   -0.013586  -0.060845  -0.007789   0.523075   4.723978   0.493899
     6  C    0.524989  -0.013731  -0.061530  -0.018494   0.493899   4.745192
     7  H    0.403487  -0.041097   0.008151  -0.000449   0.007940  -0.037130
     8  H   -0.000683   0.010567  -0.025505   0.392493  -0.041992   0.007341
     9  H    0.008336  -0.000420   0.008203  -0.038903   0.405156  -0.043653
    10  H   -0.041667   0.009496  -0.000640   0.008755  -0.043431   0.406221
    11  N    0.005462  -0.051554   0.425795  -0.042514   0.002913   0.000328
    12  S   -0.058271   0.339266  -0.113000   0.005138   0.000229   0.003193
    13  C   -0.000140   0.003095   0.010133  -0.000812   0.000009  -0.000001
    14  C   -0.000002   0.000029   0.000072   0.000005  -0.000000  -0.000000
    15  C    0.000001  -0.000315   0.000955   0.000112   0.000000   0.000000
    16  C    0.000000  -0.000001   0.000004  -0.000000   0.000000   0.000000
    17  H   -0.000001   0.000028  -0.000001  -0.000000   0.000000  -0.000000
    18  C    0.000000   0.000006  -0.000034  -0.000000  -0.000000   0.000000
    19  C   -0.000000   0.000000   0.000001  -0.000000   0.000000   0.000000
    20  H   -0.000000  -0.000000  -0.000000   0.000000  -0.000000  -0.000000
    21  H   -0.000000   0.000000   0.000002  -0.000000   0.000000   0.000000
    22  H    0.000000  -0.000000  -0.000000  -0.000000  -0.000000  -0.000000
    23  C    0.003462  -0.051171  -0.113493   0.002455   0.000157  -0.000145
    24  O    0.000002  -0.000101  -0.001572  -0.000085  -0.000002  -0.000000
    25  H   -0.000009   0.004947  -0.016666  -0.003017  -0.000023   0.000006
               7          8          9         10         11         12
     1  C    0.403487  -0.000683   0.008336  -0.041667   0.005462  -0.058271
     2  C   -0.041097   0.010567  -0.000420   0.009496  -0.051554   0.339266
     3  C    0.008151  -0.025505   0.008203  -0.000640   0.425795  -0.113000
     4  C   -0.000449   0.392493  -0.038903   0.008755  -0.042514   0.005138
     5  C    0.007940  -0.041992   0.405156  -0.043431   0.002913   0.000229
     6  C   -0.037130   0.007341  -0.043653   0.406221   0.000328   0.003193
     7  H    0.651363   0.000030  -0.000132  -0.011926  -0.000116  -0.005795
     8  H    0.000030   0.643732  -0.011310  -0.000130  -0.003077  -0.000205
     9  H   -0.000132  -0.011310   0.660049  -0.012030  -0.000120   0.000021
    10  H   -0.011926  -0.000130  -0.012030   0.660072   0.000001  -0.000122
    11  N   -0.000116  -0.003077  -0.000120   0.000001   6.408138  -0.062334
    12  S   -0.005795  -0.000205   0.000021  -0.000122  -0.062334  15.441500
    13  C    0.000006   0.000067  -0.000000  -0.000000  -0.025505  -0.058546
    14  C    0.000000   0.000001   0.000000  -0.000000   0.002852  -0.003825
    15  C   -0.000000  -0.000019   0.000000   0.000000  -0.006642   0.003040
    16  C   -0.000000  -0.000000  -0.000000   0.000000  -0.000099  -0.000087
    17  H    0.000000   0.000000  -0.000000  -0.000000   0.000210   0.004654
    18  C   -0.000000  -0.000000  -0.000000  -0.000000  -0.000520  -0.000073
    19  C    0.000000   0.000000  -0.000000  -0.000000   0.000065   0.000016
    20  H   -0.000000  -0.000000   0.000000   0.000000   0.000001  -0.000001
    21  H   -0.000000   0.000000  -0.000000   0.000000   0.000033   0.000003
    22  H    0.000000  -0.000000  -0.000000  -0.000000  -0.000000  -0.000000
    23  C    0.000057  -0.000753   0.000007   0.000003   0.530843   0.323603
    24  O   -0.000000  -0.000335   0.000000  -0.000000  -0.092383  -0.000376
    25  H    0.000002   0.001544  -0.000009  -0.000000   0.197750   0.002586
              13         14         15         16         17         18
     1  C   -0.000140  -0.000002   0.000001   0.000000  -0.000001   0.000000
     2  C    0.003095   0.000029  -0.000315  -0.000001   0.000028   0.000006
     3  C    0.010133   0.000072   0.000955   0.000004  -0.000001  -0.000034
     4  C   -0.000812   0.000005   0.000112  -0.000000  -0.000000  -0.000000
     5  C    0.000009  -0.000000   0.000000   0.000000   0.000000  -0.000000
     6  C   -0.000001  -0.000000   0.000000   0.000000  -0.000000   0.000000
     7  H    0.000006   0.000000  -0.000000  -0.000000   0.000000  -0.000000
     8  H    0.000067   0.000001  -0.000019  -0.000000   0.000000  -0.000000
     9  H   -0.000000   0.000000   0.000000  -0.000000  -0.000000  -0.000000
    10  H   -0.000000  -0.000000   0.000000   0.000000  -0.000000  -0.000000
    11  N   -0.025505   0.002852  -0.006642  -0.000099   0.000210  -0.000520
    12  S   -0.058546  -0.003825   0.003040  -0.000087   0.004654  -0.000073
    13  C    5.355657   0.464915   0.260432  -0.008429  -0.040374  -0.041154
    14  C    0.464915   4.807230   0.005602   0.529100   0.402210  -0.054966
    15  C    0.260432   0.005602   4.754939  -0.060886   0.007406   0.505888
    16  C   -0.008429   0.529100  -0.060886   4.772943  -0.035883  -0.020522
    17  H   -0.040374   0.402210   0.007406  -0.035883   0.678079  -0.000785
    18  C   -0.041154  -0.054966   0.505888  -0.020522  -0.000785   4.815173
    19  C   -0.047569  -0.016781  -0.012883   0.483850   0.008371   0.511145
    20  H    0.008806  -0.036257  -0.000269   0.400907  -0.012646   0.008312
    21  H    0.013099  -0.000589  -0.022492   0.007364   0.000044   0.376546
    22  H   -0.001150   0.008862   0.008970  -0.044893  -0.000156  -0.040342
    23  C    0.333650  -0.092386  -0.080531   0.007212  -0.018536   0.007044
    24  O   -0.078343   0.004606   0.545588  -0.000009  -0.000062  -0.061698
    25  H   -0.022567  -0.000412  -0.030591  -0.000015  -0.000014   0.004367
              19         20         21         22         23         24
     1  C   -0.000000  -0.000000  -0.000000   0.000000   0.003462   0.000002
     2  C    0.000000  -0.000000   0.000000  -0.000000  -0.051171  -0.000101
     3  C    0.000001  -0.000000   0.000002  -0.000000  -0.113493  -0.001572
     4  C   -0.000000   0.000000  -0.000000  -0.000000   0.002455  -0.000085
     5  C    0.000000  -0.000000   0.000000  -0.000000   0.000157  -0.000002
     6  C    0.000000  -0.000000   0.000000  -0.000000  -0.000145  -0.000000
     7  H    0.000000  -0.000000  -0.000000   0.000000   0.000057  -0.000000
     8  H    0.000000  -0.000000   0.000000  -0.000000  -0.000753  -0.000335
     9  H   -0.000000   0.000000  -0.000000  -0.000000   0.000007   0.000000
    10  H   -0.000000   0.000000   0.000000  -0.000000   0.000003  -0.000000
    11  N    0.000065   0.000001   0.000033  -0.000000   0.530843  -0.092383
    12  S    0.000016  -0.000001   0.000003  -0.000000   0.323603  -0.000376
    13  C   -0.047569   0.008806   0.013099  -0.001150   0.333650  -0.078343
    14  C   -0.016781  -0.036257  -0.000589   0.008862  -0.092386   0.004606
    15  C   -0.012883  -0.000269  -0.022492   0.008970  -0.080531   0.545588
    16  C    0.483850   0.400907   0.007364  -0.044893   0.007212  -0.000009
    17  H    0.008371  -0.012646   0.000044  -0.000156  -0.018536  -0.000062
    18  C    0.511145   0.008312   0.376546  -0.040342   0.007044  -0.061698
    19  C    4.731082  -0.047181  -0.045944   0.404984   0.000289   0.003786
    20  H   -0.047181   0.682158  -0.000174  -0.011990  -0.000317   0.000002
    21  H   -0.045944  -0.000174   0.666872  -0.011869  -0.000396   0.004702
    22  H    0.404984  -0.011990  -0.011869   0.667382   0.000007  -0.000082
    23  C    0.000289  -0.000317  -0.000396   0.000007   5.081317  -0.006558
    24  O    0.003786   0.000002   0.004702  -0.000082  -0.006558   7.769041
    25  H   -0.000326  -0.000001   0.000011   0.000011  -0.001713   0.242388
              25
     1  C   -0.000009
     2  C    0.004947
     3  C   -0.016666
     4  C   -0.003017
     5  C   -0.000023
     6  C    0.000006
     7  H    0.000002
     8  H    0.001544
     9  H   -0.000009
    10  H   -0.000000
    11  N    0.197750
    12  S    0.002586
    13  C   -0.022567
    14  C   -0.000412
    15  C   -0.030591
    16  C   -0.000015
    17  H   -0.000014
    18  C    0.004367
    19  C   -0.000326
    20  H   -0.000001
    21  H    0.000011
    22  H    0.000011
    23  C   -0.001713
    24  O    0.242388
    25  H    0.407102
 Mulliken charges:
               1
     1  C    0.004911
     2  C   -0.236208
     3  C    0.276988
     4  C   -0.018928
     5  C    0.010314
     6  C   -0.006485
     7  H    0.025610
     8  H    0.028233
     9  H    0.024805
    10  H    0.025399
    11  N   -0.289526
    12  S    0.179386
    13  C   -0.125277
    14  C   -0.020267
    15  C    0.121696
    16  C   -0.030555
    17  H    0.007456
    18  C   -0.008386
    19  C    0.027094
    20  H    0.008651
    21  H    0.012791
    22  H    0.020268
    23  C    0.075892
    24  O   -0.328509
    25  H    0.214649
 Sum of Mulliken charges =  -0.00000
 Mulliken charges with hydrogens summed into heavy atoms:
               1
     1  C    0.030521
     2  C   -0.236208
     3  C    0.276988
     4  C    0.009304
     5  C    0.035119
     6  C    0.018913
    11  N   -0.289526
    12  S    0.179386
    13  C   -0.125277
    14  C   -0.012811
    15  C    0.121696
    16  C   -0.021905
    18  C    0.004405
    19  C    0.047363
    23  C    0.075892
    24  O   -0.113860
 Electronic spatial extent (au):  <R**2>=           4369.5868
 Charge=             -0.0000 electrons
 Dipole moment (field-independent basis, Debye):
    X=              0.6135    Y=             -3.4972    Z=             -0.0000  Tot=              3.5506
 Quadrupole moment (field-independent basis, Debye-Ang):
   XX=            -83.2788   YY=            -91.1501   ZZ=           -104.5043
   XY=             -6.8055   XZ=             -0.0001   YZ=              0.0002
 Traceless Quadrupole moment (field-independent basis, Debye-Ang):
   XX=              9.6989   YY=              1.8276   ZZ=            -11.5265
   XY=             -6.8055   XZ=             -0.0001   YZ=              0.0002
 Octapole moment (field-independent basis, Debye-Ang**2):
  XXX=             23.5291  YYY=            -32.0214  ZZZ=             -0.0001  XYY=             -2.5009
  XXY=             -3.9436  XXZ=             -0.0001  XZZ=              1.4952  YZZ=              1.6854
  YYZ=              0.0007  XYZ=             -0.0007
 Hexadecapole moment (field-independent basis, Debye-Ang**3):
 XXXX=          -2616.7640 YYYY=          -2646.1504 ZZZZ=           -113.7894 XXXY=            809.6627
 XXXZ=              0.0097 YYYX=            763.2993 YYYZ=             -0.0104 ZZZX=              0.0127
 ZZZY=             -0.0190 XXYY=           -855.4386 XXZZ=           -574.8264 YYZZ=           -555.7450
 XXYZ=             -0.0025 YYXZ=             -0.0007 ZZXY=            357.3455
 N-N= 1.093947001026D+03 E-N=-4.599829777197D+03  KE= 1.023524978517D+03
 No NMR shielding tensors so no spin-rotation constants.
 Leave Link  601 at Tue Oct 27 20:23:45 2020, MaxMem=  7784628224 cpu:               3.2 elap:               0.6
 (Enter /gpfs/loomis/apps/avx/software/Gaussian/16-C.01_AVX/g16/l701.exe)
 ... and contract with generalized density number  0.
 Compute integral first derivatives.
 R6Disp: Adding Grimme-D2 dispersion energy 1st derivatives to the gradient.
 D1PCM: PCM CHGder 1st derivatives, ID1Alg=3 FixD1E=F DoIter=F DoCFld=F I1PDM=0.
 GePol: Maximum number of non-zero 1st derivatives   =     273
 Leave Link  701 at Tue Oct 27 20:23:49 2020, MaxMem=  7784628224 cpu:              21.4 elap:               3.1
 (Enter /gpfs/loomis/apps/avx/software/Gaussian/16-C.01_AVX/g16/l702.exe)
 L702 exits ... SP integral derivatives will be done elsewhere.
 Leave Link  702 at Tue Oct 27 20:23:49 2020, MaxMem=  7784628224 cpu:               0.2 elap:               0.1
 (Enter /gpfs/loomis/apps/avx/software/Gaussian/16-C.01_AVX/g16/l703.exe)
 Integral derivatives from FoFJK, PRISM(SPDF).
 Compute integral first derivatives, UseDBF=F ICtDFT=           0.
 Calling FoFJK, ICntrl=      2127 FMM=F ISym2X=0 I1Cent= 0 IOpClX= 0 NMat=1 NMatS=1 NMatT=0.
 FoFJK:  IHMeth= 1 ICntrl=    2127 DoSepK=T KAlg= 0 I1Cent=           0 FoldK=F
 IRaf=         1 NMat=       1 IRICut=       1 DoRegI=T DoRafI=F ISym2E= 0 IDoP0=0 IntGTp=1.
 FoFCou: FMM=F IPFlag=           0 FMFlag=      100000 FMFlg1=         800
         NFxFlg=           0 DoJE=F BraDBF=F KetDBF=F FulRan=T
         wScrn=  0.000000 ICntrl=      2527 IOpCl=  0 I1Cent=           0 NGrid=           0
         NMat0=    1 NMatS0=      1 NMatT0=    0 NMatD0=    1 NMtDS0=    0 NMtDT0=    0
 Symmetry not used in FoFCou.
 Leave Link  703 at Tue Oct 27 20:24:03 2020, MaxMem=  7784628224 cpu:             136.8 elap:              14.5
 (Enter /gpfs/loomis/apps/avx/software/Gaussian/16-C.01_AVX/g16/l716.exe)
 Dipole        = 2.41372687D-01-1.37588772D+00-9.35539900D-06
 -------------------------------------------------------------------
 Center     Atomic                   Forces (Hartrees/Bohr)
 Number     Number              X              Y              Z
 -------------------------------------------------------------------
      1        6           0.003857122   -0.001223282    0.000000054
      2        6           0.007003680    0.011144845   -0.000000018
      3        6           0.019786727   -0.027494630   -0.000000006
      4        6          -0.008824705   -0.000906686   -0.000000067
      5        6          -0.001319334   -0.004768503   -0.000000047
      6        6          -0.006773908    0.001697422    0.000000056
      7        1           0.001061986    0.002666543   -0.000000045
      8        1          -0.001020419   -0.002800679   -0.000000013
      9        1          -0.002056756   -0.000314644   -0.000000005
     10        1          -0.001461841    0.001331164    0.000000012
     11        7          -0.047803393    0.005300799    0.000000145
     12       16           0.007399631    0.016490825   -0.000000025
     13        6          -0.003149555    0.038493665    0.000000672
     14        6          -0.008865555    0.013931563    0.000001383
     15        6          -0.007147701   -0.022958026   -0.000000670
     16        6           0.001064526   -0.016900665   -0.000000573
     17        1          -0.000123686    0.001443416    0.000000158
     18        6          -0.013297466   -0.001632659   -0.000000002
     19        6           0.015198129   -0.011043331   -0.000000605
     20        1           0.001668929   -0.000430080   -0.000000069
     21        1          -0.001617218   -0.002225977    0.000000025
     22        1           0.000453562   -0.000809634   -0.000000127
     23        6           0.035559234   -0.002606377   -0.000000583
     24        8           0.016638950   -0.012067475    0.000000067
     25        1          -0.006230938    0.015682406    0.000000283
 -------------------------------------------------------------------
 Cartesian Forces:  Max     0.047803393 RMS     0.011140369
 Leave Link  716 at Tue Oct 27 20:24:04 2020, MaxMem=  7784628224 cpu:               0.3 elap:               0.1
 (Enter /gpfs/loomis/apps/avx/software/Gaussian/16-C.01_AVX/g16/l103.exe)

 GradGradGradGradGradGradGradGradGradGradGradGradGradGradGradGradGradGrad
 Berny optimization.
 FormGI is forming the generalized inverse of G from B-inverse, IUseBI=4.
 Internal  Forces:  Max     0.031450536 RMS     0.005497701
 Search for a local minimum.
 Step number   1 out of a maximum of  150
 All quantities printed in internal units (Hartrees-Bohrs-Radians)
 RMS Force = .55363D-02 SwitMx=.10000D-02 MixMth= 1
 Mixed Optimization -- RFO/linear search
 Second derivative matrix not updated -- first step.
 ITU=  0
     Eigenvalues ---    0.00380   0.01350   0.01458   0.01572   0.01645
     Eigenvalues ---    0.01714   0.01804   0.01928   0.01955   0.01962
     Eigenvalues ---    0.01972   0.02004   0.02013   0.02032   0.02042
     Eigenvalues ---    0.02043   0.02076   0.02093   0.02100   0.02104
     Eigenvalues ---    0.02166   0.02169   0.16000   0.16000   0.16000
     Eigenvalues ---    0.16000   0.16000   0.16000   0.16001   0.16016
     Eigenvalues ---    0.20824   0.21550   0.21997   0.22086   0.22292
     Eigenvalues ---    0.22581   0.22877   0.24480   0.24540   0.24818
     Eigenvalues ---    0.24982   0.26091   0.27865   0.30878   0.34234
     Eigenvalues ---    0.34272   0.34291   0.34339   0.34374   0.34418
     Eigenvalues ---    0.34420   0.34545   0.35943   0.37754   0.39737
     Eigenvalues ---    0.40890   0.41999   0.42571   0.43405   0.43806
     Eigenvalues ---    0.44240   0.45131   0.46203   0.47387   0.48352
     Eigenvalues ---    0.53314   0.667681000.000001000.000001000.00000
     Eigenvalues --- 1000.000001000.000001000.000001000.000001000.00000
     Eigenvalues --- 1000.000001000.000001000.000001000.000001000.00000
     Eigenvalues --- 1000.000001000.000001000.000001000.000001000.00000
     Eigenvalues --- 1000.000001000.000001000.000001000.000001000.00000
     Eigenvalues --- 1000.000001000.000001000.000001000.000001000.00000
     Eigenvalues --- 1000.000001000.000001000.000001000.000001000.00000
     Eigenvalues --- 1000.000001000.000001000.000001000.000001000.00000
     Eigenvalues --- 1000.000001000.000001000.000001000.000001000.00000
     Eigenvalues --- 1000.000001000.000001000.000001000.000001000.00000
     Eigenvalues --- 1000.000001000.000001000.000001000.000001000.00000
     Eigenvalues --- 1000.000001000.000001000.000001000.000001000.00000
     Eigenvalues --- 1000.000001000.000001000.000001000.000001000.00000
     Eigenvalues --- 1000.000001000.000001000.000001000.000001000.00000
     Eigenvalues --- 1000.000001000.000001000.000001000.000001000.00000
     Eigenvalues --- 1000.000001000.000001000.000001000.00000
 RFO step:  Lambda=-1.11601686D-02 EMin= 3.79621662D-03
 Linear search not attempted -- first point.
 Iteration  1 RMS(Cart)=  0.02134125 RMS(Int)=  0.00017784
 Iteration  2 RMS(Cart)=  0.00018314 RMS(Int)=  0.00005138
 Iteration  3 RMS(Cart)=  0.00000006 RMS(Int)=  0.00005138
 Iteration  1 RMS(Cart)=  0.00000001 RMS(Int)=  0.00000001
 ITry= 1 IFail=0 DXMaxC= 8.11D-02 DCOld= 1.00D+10 DXMaxT= 3.00D-01 DXLimC= 3.00D+00 Rises=F
 Variable       Old X    -DE/DX   Delta X   Delta X   Delta X     New X
                                 (Linear)    (Quad)   (Total)
    R1        2.64408  -0.00088   0.00000  -0.00225  -0.00222   2.64186
    R2        2.65108  -0.00738   0.00000  -0.01606  -0.01606   2.63502
    R3        2.06871  -0.00284   0.00000  -0.00802  -0.00802   2.06069
    R4        2.68971  -0.01606   0.00000  -0.03460  -0.03450   2.65520
    R5        3.35034  -0.00262   0.00000  -0.00777  -0.00776   3.34258
    R6        2.66939  -0.01232   0.00000  -0.02779  -0.02779   2.64159
    R7        2.53762   0.01839   0.00000   0.03313   0.03313   2.57075
    R8        2.61770  -0.00343   0.00000  -0.00639  -0.00641   2.61129
    R9        2.06841  -0.00286   0.00000  -0.00811  -0.00811   2.06030
   R10        2.66314  -0.00464   0.00000  -0.00972  -0.00972   2.65342
   R11        2.06704  -0.00199   0.00000  -0.00562  -0.00562   2.06142
   R12        2.06627  -0.00194   0.00000  -0.00545  -0.00544   2.06083
   R13        2.56326  -0.03145   0.00000  -0.06267  -0.06272   2.50053
   R14        2.38022   0.00417   0.00000   0.01983   0.02003   2.40025
   R15        3.38533  -0.00409   0.00000  -0.02030  -0.02025   3.36509
   R16        2.66226   0.00302   0.00000   0.00642   0.00656   2.66882
   R17        2.82838  -0.02422   0.00000  -0.06915  -0.06914   2.75924
   R18        2.70102   0.00967   0.00000   0.01884   0.01877   2.71980
   R19        2.66225  -0.02332   0.00000  -0.05269  -0.05262   2.60963
   R20        2.06937  -0.00128   0.00000  -0.00361  -0.00361   2.06577
   R21        2.67493  -0.00544   0.00000  -0.01154  -0.01168   2.66325
   R22        2.43729   0.00789   0.00000   0.01405   0.01409   2.45138
   R23        2.66497  -0.00344   0.00000  -0.00835  -0.00833   2.65663
   R24        2.06630  -0.00166   0.00000  -0.00467  -0.00467   2.06163
   R25        2.62933  -0.01226   0.00000  -0.02509  -0.02523   2.60410
   R26        2.06762  -0.00259   0.00000  -0.00733  -0.00732   2.06029
   R27        2.06419  -0.00088   0.00000  -0.00248  -0.00248   2.06171
   R28        2.27146  -0.02030   0.00000  -0.07502  -0.07498   2.19648
    A1        2.06937  -0.00221   0.00000  -0.00715  -0.00716   2.06221
    A2        2.11462   0.00131   0.00000   0.00463   0.00464   2.11926
    A3        2.09919   0.00090   0.00000   0.00252   0.00252   2.10171
    A4        2.09200   0.00104   0.00000   0.00336   0.00335   2.09535
    A5        2.27922   0.00510   0.00000   0.01397   0.01396   2.29318
    A6        1.91197  -0.00614   0.00000  -0.01733  -0.01732   1.89466
    A7        2.11179   0.00282   0.00000   0.00687   0.00688   2.11866
    A8        2.00057   0.00036   0.00000   0.00205   0.00214   2.00270
    A9        2.17083  -0.00318   0.00000  -0.00892  -0.00901   2.16182
   A10        2.06772   0.00001   0.00000  -0.00076  -0.00074   2.06699
   A11        2.08250  -0.00011   0.00000  -0.00009  -0.00010   2.08239
   A12        2.13297   0.00010   0.00000   0.00085   0.00084   2.13381
   A13        2.10696  -0.00147   0.00000  -0.00410  -0.00411   2.10285
   A14        2.08964   0.00057   0.00000   0.00125   0.00125   2.09089
   A15        2.08659   0.00090   0.00000   0.00285   0.00286   2.08944
   A16        2.11853  -0.00019   0.00000   0.00178   0.00177   2.12030
   A17        2.07902  -0.00002   0.00000  -0.00170  -0.00170   2.07732
   A18        2.08564   0.00021   0.00000  -0.00008  -0.00007   2.08556
   A19        2.00446   0.00249   0.00000   0.00672   0.00664   2.01110
   A20        2.41735  -0.00654   0.00000  -0.01650  -0.01644   2.40091
   A21        1.86138   0.00405   0.00000   0.00978   0.00980   1.87117
   A22        1.55990   0.00430   0.00000   0.01402   0.01397   1.57387
   A23        2.02679   0.00749   0.00000   0.03359   0.03373   2.06052
   A24        2.21652  -0.00295   0.00000  -0.01527  -0.01526   2.20126
   A25        2.03988  -0.00453   0.00000  -0.01832  -0.01847   2.02141
   A26        2.11810   0.00014   0.00000   0.00131   0.00149   2.11959
   A27        2.08402   0.00104   0.00000   0.00573   0.00564   2.08966
   A28        2.08106  -0.00119   0.00000  -0.00704  -0.00713   2.07393
   A29        2.10101  -0.00675   0.00000  -0.02968  -0.02973   2.07128
   A30        2.12166   0.00475   0.00000   0.02507   0.02514   2.14679
   A31        2.06052   0.00200   0.00000   0.00461   0.00460   2.06511
   A32        2.13139  -0.00765   0.00000  -0.03495  -0.03487   2.09652
   A33        2.06932   0.00354   0.00000   0.01566   0.01562   2.08494
   A34        2.08248   0.00411   0.00000   0.01929   0.01925   2.10172
   A35        2.11269  -0.00002   0.00000   0.00081   0.00059   2.11328
   A36        2.03211   0.00014   0.00000   0.00050   0.00061   2.03272
   A37        2.13838  -0.00012   0.00000  -0.00131  -0.00120   2.13718
   A38        2.07640   0.00679   0.00000   0.02892   0.02880   2.10519
   A39        2.10059  -0.00307   0.00000  -0.01269  -0.01262   2.08796
   A40        2.10620  -0.00373   0.00000  -0.01623  -0.01617   2.09003
   A41        1.94788  -0.00100   0.00000  -0.00546  -0.00543   1.94245
   A42        2.04846   0.00081   0.00000  -0.00051  -0.00061   2.04785
   A43        2.28685   0.00019   0.00000   0.00597   0.00603   2.29288
   A44        1.82254  -0.00705   0.00000  -0.02050  -0.02044   1.80210
   A45        2.67245   0.00198   0.00000   0.00448   0.00459   2.67704
    D1        0.00000   0.00000   0.00000   0.00000   0.00000   0.00000
    D2       -3.14159  -0.00000   0.00000  -0.00000  -0.00000  -3.14159
    D3        3.14159   0.00000   0.00000   0.00000   0.00000  -3.14159
    D4        0.00000   0.00000   0.00000   0.00000   0.00000   0.00000
    D5        0.00000   0.00000   0.00000   0.00000   0.00000   0.00000
    D6        3.14159   0.00000   0.00000   0.00000   0.00000  -3.14159
    D7       -3.14159  -0.00000   0.00000  -0.00000  -0.00000  -3.14159
    D8        0.00000  -0.00000   0.00000  -0.00000  -0.00000   0.00000
    D9       -0.00000  -0.00000   0.00000  -0.00000  -0.00000  -0.00000
   D10        3.14159  -0.00000   0.00000  -0.00000  -0.00000   3.14159
   D11        3.14159   0.00000   0.00000  -0.00000  -0.00000   3.14159
   D12       -0.00000  -0.00000   0.00000  -0.00000  -0.00000  -0.00000
   D13       -3.14159   0.00000   0.00000   0.00000   0.00000  -3.14159
   D14        0.00000   0.00000   0.00000   0.00000   0.00000   0.00000
   D15        0.00000   0.00000   0.00000   0.00000   0.00000   0.00000
   D16       -3.14159  -0.00000   0.00000   0.00000   0.00000  -3.14159
   D17       -3.14159   0.00000   0.00000   0.00000   0.00000  -3.14159
   D18        0.00000   0.00000   0.00000   0.00000   0.00000   0.00000
   D19        0.00000   0.00000   0.00000  -0.00000  -0.00000   0.00000
   D20        3.14158   0.00000   0.00000   0.00000   0.00000   3.14158
   D21       -3.14159  -0.00000   0.00000  -0.00000  -0.00000  -3.14159
   D22       -0.00002   0.00000   0.00000   0.00000   0.00000  -0.00002
   D23       -0.00000  -0.00000   0.00000  -0.00000  -0.00000  -0.00000
   D24        3.14159  -0.00000   0.00000  -0.00000  -0.00000   3.14159
   D25       -3.14159   0.00000   0.00000   0.00000   0.00000  -3.14159
   D26        0.00000   0.00000   0.00000   0.00000   0.00000   0.00000
   D27       -0.00000  -0.00000   0.00000  -0.00000  -0.00000  -0.00000
   D28        3.14159  -0.00000   0.00000  -0.00000  -0.00000   3.14159
   D29        3.14159  -0.00000   0.00000  -0.00000  -0.00000   3.14159
   D30       -0.00000   0.00000   0.00000   0.00000   0.00000  -0.00000
   D31       -0.00000   0.00000   0.00000   0.00000   0.00000   0.00000
[...]
 003452,-0.00001648,0.,-0.00003254,0.00002218,0.,-0.00001408,0.00001464
 ,0.,-0.00333105,0.00134945,-0.00000004,-0.00015742,0.00079692,-0.00000
 005,-0.03880649,0.02202795,-0.00000031,-0.21123920,0.14871992,-0.00000
 005,0.00463127,0.01129109,0.00000028,0.76204609,-0.00102895,0.00144252
 ,0.00000001,0.00218571,-0.00113203,-0.00000009,0.00024067,0.00119123,-
 0.00000007,-0.00106992,-0.00003397,0.00000004,-0.00004187,-0.00159237,
 -0.00000005,0.00179226,0.00012669,-0.00000003,-0.00006255,-0.00008303,
 0.,0.00004202,0.00005056,0.,0.00013230,-0.00005555,0.,0.00008354,-0.00
 003277,0.,0.00944085,0.00728943,0.00000036,-0.00203671,-0.00192488,0.0
 0000016,0.07368731,0.02229257,0.00000052,0.07739536,-0.27926190,-0.000
 00084,0.02360339,-0.07120380,-0.00000059,-0.00034682,0.67093360,-0.000
 00002,0.00000002,0.00001747,0.00000004,-0.00000002,0.00023951,0.000000
 03,0.,-0.00073173,-0.00000002,0.,-0.00010038,0.,-0.00000003,0.00006044
 ,0.00000003,0.,-0.00000823,0.,0.,-0.00000400,0.,0.,-0.00000546,0.,0.,0
 .00001372,0.,0.,-0.00001442,0.00000004,0.00000010,0.00025711,0.0000000
 2,-0.00000004,-0.00050971,0.00000038,0.00000036,0.00797119,-0.00000073
 ,-0.00000054,-0.06345469,0.00000047,-0.00000066,-0.00485547,0.00000671
 ,0.00000714,0.12527694,0.00021867,0.00004881,0.,-0.00056117,0.00025615
 ,0.00000008,0.00032753,-0.00011017,-0.00000001,0.00000168,0.00003095,0
 .,0.00004016,0.00004683,0.,-0.00005283,-0.00006917,0.,-0.00001303,-0.0
 0000692,0.,0.00003246,0.00000577,0.,0.00000888,-0.00000018,0.,0.000025
 27,-0.00000331,0.,0.00023105,0.00046506,0.00000001,-0.00079355,0.00149
 064,-0.00000021,-0.00712740,-0.02841932,-0.00000031,-0.10683025,-0.106
 15888,-0.00000170,-0.00515347,0.00223466,-0.00000012,0.01150323,0.0175
 5870,0.00000023,0.10919153,-0.00000614,-0.00007442,0.,-0.00010061,0.00
 037867,0.,0.00017147,-0.00007735,0.,0.00002129,0.00003275,0.,0.0000016
 5,0.00006093,0.,-0.00008370,0.00002229,0.,-0.00000239,0.00001438,0.,0.
 00000879,-0.00000547,0.,-0.00000878,0.00000327,0.,-0.00001016,0.000003
 44,0.,-0.00066366,0.00013866,0.,-0.00036102,0.00018175,0.00000005,0.00
 135840,0.00068850,-0.00000005,-0.10406249,-0.29130970,-0.00000332,0.00
 064007,0.00198989,-0.00000007,-0.01459654,-0.01696449,-0.00000034,0.11
 263511,0.30779193,0.00000001,0.,0.00000736,-0.00000003,0.00000002,-0.0
 0039452,0.,0.,0.00018058,0.,0.,0.00007056,0.,0.,-0.00001762,0.,0.,0.00
 001835,0.,0.,-0.00000731,0.,0.,-0.00001080,0.,0.,-0.00000581,0.,0.,0.0
 0001089,0.00000006,0.00000004,-0.00017469,-0.00000016,0.00000010,0.000
 76801,0.00000024,-0.00000023,0.00324814,-0.00000200,-0.00000342,-0.037
 74288,-0.00000003,-0.00000017,0.00605690,0.00000005,-0.00000018,0.0048
 9325,0.00000199,0.00000368,0.02500371,-0.00013038,0.00078283,0.0000000
 2,0.00088341,-0.00012101,0.,0.00217641,-0.00011527,-0.00000007,-0.0007
 9407,-0.00005574,0.00000002,0.00002537,-0.00081810,-0.00000002,0.00077
 078,0.00007366,-0.00000002,-0.00006521,0.00001381,0.,0.00011640,0.0000
 1767,0.,0.00004461,-0.00001841,0.,0.00004460,0.00000665,0.,0.00492448,
 0.01180459,0.00000023,0.00017814,-0.00012232,0.00000002,0.05697707,0.0
 1767557,0.00000063,-0.05705590,0.02967101,-0.00000010,-0.15822044,0.04
 732719,0.00000074,-0.01499384,-0.08471091,-0.00000128,-0.00065075,0.00
 063095,-0.00000013,0.75144796,0.00058872,-0.00050595,0.,-0.00137149,-0
 .00013536,0.00000006,-0.00072916,-0.00000361,0.00000005,0.00065116,0.0
 0000464,-0.00000002,0.00004533,0.00078447,0.00000002,-0.00076298,-0.00
 017147,0.,0.00000979,0.00002825,0.,-0.00002279,-0.00000988,0.,-0.00003
 872,0.00002301,0.,-0.00000166,0.00000170,0.,-0.00285041,-0.00332544,-0
 .00000019,0.00159600,-0.00001955,-0.00000008,-0.00858218,-0.03304621,-
 0.00000070,0.02328278,-0.01499479,0.00000005,0.10231508,-0.25878911,-0
 .00000301,-0.03497178,0.02596945,-0.00000005,0.00032074,0.00049514,0.0
 0000006,0.05393619,0.70567218,0.00000003,-0.00000001,-0.00015433,-0.00
 000009,-0.00000002,-0.00010459,-0.00000004,0.00000003,-0.00077737,0.00
 000002,0.,0.00004751,0.,0.00000003,0.00000937,-0.00000002,-0.00000001,
 0.00003068,0.,0.,-0.00003804,0.,0.,-0.00002506,0.,0.,-0.00001357,0.,0.
 ,0.00003959,0.00000004,-0.00000005,0.00180805,0.00000011,0.,-0.0003784
 4,0.00000029,-0.00000004,0.00789494,0.,0.00000002,-0.00293137,0.000001
 62,-0.00000374,-0.07168811,-0.00000078,-0.00000038,0.00824394,0.,0.000
 00003,-0.00078247,0.00000429,0.00001064,0.12316718,0.00071429,-0.00104
 182,-0.00000001,-0.00179096,0.00055431,0.00000006,-0.00093413,-0.00026
 448,0.00000006,0.00101380,0.00004102,-0.00000003,0.00000691,0.00128498
 ,0.00000004,-0.00132817,-0.00015300,0.00000002,0.00004593,0.00005612,0
 .,-0.00005398,-0.00003992,0.,-0.00009589,0.00004485,0.,-0.00005619,0.0
 0001914,0.,-0.00582149,-0.00587063,-0.00000025,0.00142960,0.00082176,-
 0.00000011,-0.04554720,-0.01251922,-0.00000027,0.06595306,-0.01598822,
 0.00000023,-0.04970338,0.06389223,0.00000037,-0.16342363,-0.04120455,-
 0.00000167,-0.00178939,0.00431368,-0.00000002,-0.38775472,-0.06373946,
 -0.00000293,0.73397247,0.00036186,-0.00051905,0.,-0.00071537,0.0003784
 0,0.00000004,-0.00021083,-0.00070303,0.00000002,0.00027493,0.00007399,
 -0.00000001,0.00001030,0.00050336,0.00000002,-0.00061626,-0.00003340,0
 .00000001,0.00002819,0.00001656,0.,-0.00002855,-0.00001429,0.,-0.00004
 373,0.00001979,0.,-0.00002565,0.00000778,0.,-0.00554047,-0.00441766,-0
 .00000015,0.00062760,0.00058813,-0.00000006,-0.03862127,-0.01487209,-0
 .00000036,0.04085862,-0.06130648,-0.00000067,0.01271883,0.05538733,0.0
 0000092,-0.11535622,-0.29703532,-0.00000496,0.00334943,-0.00276612,0.0
 0000002,0.00718850,-0.13660904,-0.00000126,-0.03197981,0.71515020,0.,-
 0.00000001,0.00000509,-0.00000002,0.00000001,0.00003460,0.,-0.00000002
 ,0.00026448,0.,0.,-0.00000022,0.,0.00000001,-0.00001825,-0.00000002,0.
 ,0.00000198,0.,0.,0.00000386,0.,0.,0.00000921,0.,0.,-0.00000052,0.,0.,
 -0.00000703,-0.00000014,-0.00000012,-0.00043885,0.00000002,0.00000001,
 -0.00000107,-0.00000093,-0.00000029,-0.00399690,0.00000102,-0.00000090
 ,0.00679327,0.00000005,0.00000131,-0.00068060,-0.00000267,-0.00000447,
 -0.06300110,-0.00000006,-0.00000004,0.00757819,-0.00000201,-0.00000174
 ,-0.05831750,0.00000352,0.00000934,0.14327499,0.00002388,-0.00007221,0
 .,-0.00006825,0.00011866,0.,-0.00001580,-0.00007028,0.,0.00004318,0.00
 003159,0.,-0.00001018,0.00006399,0.,-0.00007862,0.00000712,0.,0.000002
 51,0.00000947,0.,0.00000184,-0.00000548,0.,-0.00001095,0.00000561,0.,-
 0.00000892,0.00000487,0.,-0.00043514,0.00032385,0.,0.00001653,0.000068
 94,0.,0.00042835,0.00338366,-0.00000005,-0.01281261,-0.00577148,-0.000
 00018,0.00054315,0.00003452,0.,-0.34444801,-0.03036032,-0.00000345,0.0
 0076305,0.00010343,0.00000006,0.00122171,-0.00239638,-0.00000010,-0.00
 788461,0.00298759,-0.00000002,0.36280066,-0.00000546,0.00003270,0.,0.0
 0004117,-0.00006392,0.,0.00009398,0.00005300,0.,-0.00001710,-0.0000403
 6,0.,0.00001358,-0.00002256,0.,0.00003238,-0.00000413,0.,-0.00000064,-
 0.00000419,0.,0.00000136,0.00000254,0.,0.00000549,-0.00000457,0.,0.000
 00400,-0.00000161,0.,0.00044508,-0.00017203,0.,0.00001202,0.00003848,0
 .,0.00205497,-0.00390012,-0.00000008,0.02659138,0.00604070,0.00000029,
 0.00035628,-0.00152315,0.,-0.03098612,-0.06059191,-0.00000072,-0.00027
 046,0.00095962,0.00000006,-0.00125685,-0.00493868,-0.00000019,-0.02929
 584,0.00187706,-0.00000024,0.03253379,0.06036190,0.,0.,-0.00000542,0.,
 0.,-0.00002743,0.,0.,-0.00024191,0.,0.,-0.00001222,0.,0.,0.00001975,0.
 ,0.,-0.00000412,0.,0.,-0.00000029,0.,0.,-0.00000678,0.,0.,0.00000414,0
 .,0.,0.00000508,0.00000001,0.,-0.00017084,0.,0.,0.00003921,-0.00000003
 ,-0.00000007,0.00726199,0.00000011,0.,0.00128245,0.00000004,-0.0000000
 4,-0.00077195,-0.00000330,-0.00000074,-0.03204737,0.00000005,0.0000000
 5,-0.00469560,-0.00000009,-0.00000020,0.00597754,-0.00000049,0.0000000
 8,0.00132103,0.00000371,0.00000081,0.02443694,-0.00004899,-0.00000105,
 0.,0.00003571,0.00008178,0.,-0.00003152,0.00000725,0.,-0.00001225,0.00
 000371,0.,-0.00000751,-0.00002802,0.,0.00002650,0.00001342,0.,0.000002
 34,-0.00000312,0.,-0.00000665,0.00000128,0.,0.00000152,-0.00000037,0.,
 -0.00000283,-0.00000186,0.,0.00016456,-0.00030067,0.,-0.00025039,0.000
 01646,0.,-0.00167054,0.00233045,0.,-0.00114067,0.00065698,0.,0.0096870
 9,0.01824690,0.00000033,-0.00513450,0.00066302,-0.00000007,0.00008529,
 -0.00010435,0.,-0.10716986,-0.11078497,-0.00000225,-0.00659059,-0.0287
 9164,-0.00000055,-0.00050738,-0.00137158,-0.00000003,0.10950858,0.0000
 2751,0.00009715,0.,-0.00003608,-0.00014519,0.,0.00010046,0.00010122,0.
 ,-0.00004188,-0.00002100,0.,0.00001468,-0.00005095,0.,0.00006279,-0.00
 002089,0.,-0.00000702,-0.00000067,0.,0.00000844,0.00000349,0.,0.000009
 41,-0.00000415,0.,0.00001176,-0.00000165,0.,0.00011191,0.00069372,0.,0
 .00024714,-0.00023261,0.,0.00374027,-0.00266620,-0.00000014,0.00118875
 ,0.00021744,0.00000004,-0.01562200,-0.01839018,-0.00000040,0.00003347,
 0.00213925,-0.00000013,-0.00007332,-0.00005401,0.00000002,-0.10900229,
 -0.29621204,-0.00000535,0.00227107,0.00170433,0.00000003,0.00010730,-0
 .00001725,0.,0.11888224,0.31066932,0.,0.,0.00002770,0.,0.,-0.00000945,
 0.,0.,-0.00005190,0.,0.,0.00000182,0.,0.,-0.00000175,0.,0.,-0.00000051
 ,0.,0.,0.00000190,0.,0.,0.00000294,0.,0.,0.00000276,0.,0.,-0.00000417,
 0.,0.00000002,0.00007118,0.,0.,-0.00002134,0.00000004,-0.00000013,0.00
 514856,0.00000008,0.,-0.00083217,-0.00000037,-0.00000031,0.00475748,-0
 .00000010,-0.00000004,0.00778706,0.,0.,-0.00080353,-0.00000222,-0.0000
 0520,-0.03446476,-0.00000006,-0.00000022,0.00239557,0.,-0.00000001,0.0
 0052233,0.00000251,0.00000573,0.02447199,0.00002567,-0.00004021,0.,-0.
 00004262,0.00010316,0.,0.00010514,-0.00007161,0.,0.00001839,0.00001024
 ,0.,-0.00000223,0.00004210,0.,-0.00005269,0.00000367,0.,0.00000036,0.0
 0000597,0.,0.00000451,-0.00000305,0.,-0.00000754,0.00000332,0.,-0.0000
 0497,0.00000349,0.,-0.00010626,0.00031835,0.,0.00000416,0.00019808,0.,
 -0.00096393,-0.00033385,0.,0.00031870,-0.00309943,-0.00000008,-0.00426
 722,-0.00251678,-0.00000017,0.01061178,-0.01140824,-0.00000014,0.00039
 223,-0.00061828,0.00000001,-0.01169475,0.02708166,0.00000039,-0.156439
 01,0.13413391,0.00000139,0.00067290,0.00043566,0.00000003,0.00104256,-
 0.00027257,0.00000004,0.16159876,0.00001008,0.00002480,0.,-0.00004460,
 -0.00002057,0.,-0.00001433,0.00004079,0.,-0.00000335,-0.00000758,0.,0.
 00000674,-0.00001090,0.,0.00001743,-0.00001062,0.,-0.00000247,-0.00000
 379,0.,0.00000040,0.00000298,0.,0.00000551,-0.00000167,0.,0.00000576,-
 0.00000298,0.,0.00013067,-0.00015582,0.,-0.00004254,-0.00001035,0.,-0.
 00078606,0.00039009,0.00000002,-0.00367286,-0.00415899,-0.00000023,-0.
 00204673,0.00128417,-0.00000015,0.01976168,-0.01564763,-0.00000016,0.0
 0091566,-0.00110301,0.00000002,-0.00467918,0.00557670,0.,0.13472633,-0
 .24639327,-0.00000259,-0.00015214,0.00101557,0.00000008,0.00017940,0.0
 0071637,0.00000009,-0.14467218,0.25798854,0.,0.,-0.00000620,0.,0.,-0.0
 0003041,0.,0.,0.00015011,0.,0.,-0.00000015,0.,0.,-0.00000475,0.,0.,-0.
 00000379,0.,0.,0.00000502,0.,0.,0.00000351,0.,0.,0.00000065,0.,0.,0.00
 000284,-0.00000001,0.,-0.00028121,-0.00000001,0.00000001,0.00015669,-0
 .00000012,0.,-0.00102703,-0.00000008,-0.00000025,0.00633041,-0.0000001
 7,0.00000002,0.00924516,0.00000042,-0.00000029,0.00452934,0.00000003,-
 0.00000004,-0.00017978,0.00000003,0.00000012,0.00515504,0.00000124,-0.
 00000265,-0.04113302,0.00000004,0.00000007,-0.00349182,0.00000003,0.00
 000011,-0.00487952,-0.00000149,0.00000289,0.02693401,-0.00375279,-0.00
 595740,-0.00000005,-0.00243957,0.01727261,-0.00000015,-0.08655415,0.03
 939527,0.,0.01515388,-0.00229167,0.,-0.00396271,0.00819252,0.00000024,
 -0.00344839,-0.00520515,-0.00000005,0.00041002,-0.00094389,-0.00000008
 ,-0.00038263,-0.00018680,0.00000003,0.00026866,0.00006027,-0.00000001,
 -0.00071540,-0.00015125,0.,-0.43036772,-0.06294845,-0.00000118,-0.0503
 4046,-0.02381132,0.00000109,-0.14034612,0.06203536,-0.00000047,-0.0401
 7584,0.03342244,-0.00000011,0.04111341,0.01103533,0.00000031,-0.001311
 54,-0.01851018,-0.00000029,0.00092474,0.00105176,-0.00000002,-0.007680
 20,0.00146822,-0.00000004,0.00856735,0.00660122,0.00000019,-0.00018494
 ,0.00085630,0.,0.00021708,-0.00132268,-0.00000004,0.00033652,-0.000016
 94,0.00000003,0.73458290,0.00255972,-0.00321011,0.00000035,0.02692992,
 -0.02209564,0.00000009,0.01087454,0.00965682,0.00000006,0.00921983,-0.
 00806751,-0.00000007,-0.00202957,0.00659871,0.00000019,-0.00399612,-0.
 00486663,-0.00000018,0.00032659,-0.00073213,-0.00000002,-0.00047639,0.
 00002853,0.,0.00021426,-0.00030831,-0.00000003,-0.00045158,0.00002708,
 -0.00000006,-0.08496171,-0.14073942,-0.00000130,0.00754263,-0.13746851
 ,0.00000038,0.05372768,-0.18221190,0.00000073,0.02083347,0.00298472,0.
 00000013,0.00520315,-0.03871668,-0.00000002,-0.00626799,0.01599158,0.0
 0000008,-0.00172346,-0.00008399,0.00000003,0.00239861,-0.00908502,-0.0
 0000010,-0.01030493,-0.00675147,-0.00000018,-0.00097246,0.00074224,0.,
 0.00121078,-0.00055978,-0.00000001,-0.00036758,0.00017335,-0.00000002,
 -0.03013040,0.50944226,-0.00000020,0.00000034,-0.00027108,0.00000049,-
 0.00000134,0.00389386,0.00000085,-0.00000032,0.00406814,-0.00000031,0.
 00000012,0.00297583,0.00000003,-0.00000036,0.00061746,0.00000036,0.000
 00007,0.00084676,-0.00000004,0.00000003,-0.00037202,0.,0.00000002,-0.0
 0032535,0.,0.,-0.00048114,0.00000003,0.,0.,-0.00000206,-0.00000001,-0.
 06533154,0.00000043,0.00000134,-0.03697183,-0.00000031,0.00000042,-0.0
 5364548,-0.00000034,0.00000037,-0.00442789,0.00000023,0.,0.00293063,-0
 .00000008,-0.00000036,0.00654878,0.00000004,0.00000004,-0.00322421,-0.
 00000010,0.00000005,0.00419580,0.00000019,0.00000009,-0.00090721,0.,0.
 ,0.00120414,-0.00000001,0.,-0.00015692,0.00000001,0.00000001,-0.000769
 79,0.00000102,-0.00000022,0.13841353,-0.00076778,0.00255522,0.00000004
 ,0.00249642,0.00168497,-0.00000012,0.01096123,-0.00107916,-0.00000023,
 -0.00265149,0.00011915,0.00000004,0.00001161,-0.00255777,-0.00000007,0
 .00238457,0.00056711,-0.00000002,-0.00022587,0.00018286,0.00000001,0.0
 0035691,0.00000715,0.,0.00001553,-0.00000599,0.,0.00005454,0.00008391,
 0.00000002,0.02494735,0.06003136,0.00000089,-0.00017596,0.00097555,0.0
 0000028,-0.01951082,-0.04401087,-0.00000085,-0.01052532,0.00478215,-0.
 00000005,-0.39518846,-0.05676834,-0.00000356,-0.00640499,-0.01839193,-
 0.00000033,-0.00128772,-0.00048175,-0.00000004,-0.07362518,0.01934146,
 -0.00000041,0.02015685,0.01313395,0.00000024,-0.00011776,-0.00029816,0
 .,0.00196862,-0.00074157,0.00000011,-0.00144601,0.00050490,0.00000006,
 -0.03552857,0.02122199,-0.00000026,0.53539825,-0.00067562,-0.00146206,
 -0.00000004,0.00026957,-0.00475082,-0.00000001,-0.01634531,-0.00498380
 ,0.00000016,0.00035151,-0.00077764,0.,0.00064588,0.00090232,0.,-0.0005
 5422,-0.00024605,0.,0.00031342,-0.00043960,-0.00000003,0.00004461,0.00
 022166,0.00000001,0.00020834,-0.00015403,-0.00000001,0.00011568,-0.000
 10927,0.,0.01763543,-0.10843282,-0.00000085,-0.00105541,-0.00580055,-0
 .00000005,-0.04539765,0.00235181,-0.00000051,0.01076842,-0.00934087,-0
 .00000008,-0.05729356,-0.12010325,-0.00000108,-0.00048536,0.01181292,0
 .00000014,-0.00138874,-0.00006851,0.00000003,0.05561409,0.01032443,0.0
 0000042,-0.00804003,-0.01328306,-0.00000036,0.00001637,0.00059018,0.00
 000002,-0.00167585,0.00306397,0.00000008,0.00188466,0.00004791,0.,0.01
 842064,0.00144174,0.00000005,0.01949960,0.33147009,-0.00000002,0.00000
 003,-0.00024382,0.00000006,0.,-0.00031824,0.00000002,-0.00000002,0.001
 68027,-0.00000001,-0.00000001,0.00018346,0.,-0.00000002,-0.00005493,0.
 00000003,0.,0.00004768,0.,0.,0.00000812,0.,0.,-0.00000866,0.,0.,-0.000
 01273,0.,0.,0.00000107,0.00000036,-0.00000016,0.01157425,-0.00000004,0
 .,-0.00082267,-0.00000060,-0.00000052,0.01456352,-0.00000008,-0.000000
 01,0.00634743,-0.00000407,-0.00000117,-0.06074738,-0.00000011,-0.00000
 005,-0.00096013,-0.00000001,0.,0.00022264,0.00000016,0.00000016,0.0108
 2412,0.00000006,-0.00000018,0.00525844,0.,0.00000001,-0.00063508,0.000
 00002,0.00000011,-0.00360327,0.00000002,0.00000001,-0.00042647,-0.0000
 0027,0.00000020,-0.00219913,0.00000463,0.00000259,0.05014448,0.0005289
 0,-0.00034276,-0.00000002,-0.00239803,0.00074521,0.00000008,0.00128487
 ,0.00807395,0.00000010,0.00120406,0.00013795,-0.00000001,-0.00006339,0
 .00044175,0.00000002,-0.00047530,-0.00016339,0.,-0.00002236,0.00005372
 ,0.,-0.00071996,-0.00015157,0.,0.00003411,-0.00002421,0.,-0.00001377,-
 0.00006946,0.,-0.04082269,-0.02091375,-0.00000051,-0.00211838,-0.00294
 353,-0.00000005,-0.00129060,0.00463655,0.00000010,0.00146728,0.0004990
 4,0.,-0.04515836,0.03200001,-0.00000020,0.00069747,0.00234781,0.000000
 04,0.00051378,0.00016328,0.00000001,0.00102436,-0.00438516,-0.00000014
 ,-0.00264692,-0.00034515,-0.00000003,0.00006540,0.00002476,0.,-0.00016
 617,0.00030219,0.,-0.00010446,-0.00013116,0.,0.00561647,-0.02058099,0.
 00000003,-0.05129597,0.00712354,-0.00000016,0.13485966,0.00016817,0.00
 242811,0.00000005,0.00207370,0.00685225,-0.00000014,0.02405377,-0.0027
 0443,-0.00000029,-0.00221248,0.00212578,0.00000005,-0.00087763,-0.0024
 3697,-0.00000005,0.00147997,0.00097022,0.,-0.00040760,0.00057528,0.000
 00004,0.00025478,-0.00034964,-0.00000002,-0.00034165,0.00025828,0.0000
 0002,-0.00013947,0.00018123,0.00000002,-0.00225653,0.00875363,0.000000
 98,0.00175708,0.00947776,0.00000017,0.00522012,-0.02054873,-0.00000020
 ,-0.01068757,0.00100753,0.00000002,0.07331169,0.02009691,0.00000085,-0
 .00119597,-0.01368015,-0.00000020,-0.00113458,-0.00025416,-0.00000005,
 -0.02624125,0.00896617,0.00000001,0.01241640,0.00899735,0.00000024,-0.
 00000002,-0.00042951,-0.00000002,0.00076982,-0.00102969,0.,-0.00082046
 ,0.00026593,0.00000003,-0.04833584,0.00781008,-0.00000034,-0.02035579,
 -0.09227469,-0.00000100,-0.00649864,0.05494146,0.,0.00000002,0.0004409
 5,0.00000005,-0.00000002,0.00092993,0.00000022,-0.00000012,-0.00147125
 ,-0.00000006,0.00000004,-0.00058019,0.,-0.00000004,-0.00006251,0.00000
 003,0.00000002,-0.00007835,0.,0.,0.00002625,0.,-0.00000001,0.00022339,
 0.,0.,0.00003687,0.,0.,0.00000158,-0.00000034,0.00000026,-0.02177615,0
 .00000002,0.00000012,0.00246822,0.,-0.00000008,-0.00298567,-0.00000002
 ,0.,-0.00058806,-0.00000002,0.00000056,0.00153636,-0.00000002,-0.00000
 005,-0.00014608,0.,0.,-0.00001937,-0.00000013,-0.00000002,0.00228183,0
 .00000006,0.,0.00156156,0.,0.,0.00003621,0.,0.00000001,-0.00036202,0.,
 0.,-0.00027885,-0.00000013,-0.00000003,0.00338865,-0.00000039,-0.00000
 050,-0.03082296,0.00000072,-0.00000016,0.04623965\\0.00183405,0.001983
 58,-0.00000113,0.00285153,0.00368301,-0.00000185,0.00485891,-0.0005859
 3,0.00000112,-0.00130640,0.00207313,0.00000036,0.00019433,0.00002496,-
 0.00000003,0.00194020,0.00186669,-0.00000019,0.00007800,0.00018866,0.0
 0000023,-0.00000634,0.00010435,-0.00000003,0.00001331,0.00018752,-0.00
 000001,0.00016411,0.00014015,0.00000023,-0.00881916,0.00432209,0.00000
 089,0.00108040,0.00120294,0.00000324,-0.00509940,0.00259817,-0.0000002
 0,0.00354042,0.00044032,0.00000032,0.00819393,0.00100543,-0.00000232,-
 0.00153329,0.00569257,-0.00000041,0.00000531,0.00010128,0.,-0.00079709
 ,0.00045681,0.00000083,-0.00193298,0.00093400,0.00000038,-0.00010832,0
 .00031558,0.,0.00008946,0.00000404,0.00000002,-0.00016026,0.00007900,-
 0.00000002,-0.00568587,-0.00415891,-0.00000211,-0.00370130,-0.00701128
 ,0.00000050,0.00430647,-0.01564816,0.00000019\\\@
 The archive entry for this job was punched.


 AND HERE I AM, FOR ALL MY LORE,
 THE WRETCHED FOOL I WAS BEFORE.
 CALLED MASTER OF ARTS, AND DOCTOR TO BOOT,
 FOR TEN YEARS ALMOST I CONFUTE
 AND UP AND DOWN, WHEREVER IT GOES
 I DRAG MY STUDENTS BY THE NOSE --
 AND SEE THAT FOR ALL OUR SCIENCE AND ART
 WE CAN KNOW NOTHING.  IT BURNS MY HEART.

                                       -- FAUST
 Job cpu time:       0 days  0 hours 59 minutes 52.5 seconds.
 Elapsed time:       0 days  0 hours  6 minutes  7.0 seconds.
 File lengths (MBytes):  RWF=    548 Int=      0 D2E=      0 Chk=     40 Scr=      8
 Normal termination of Gaussian 16 at Tue Oct 27 20:37:35 2020.
