 Entering Gaussian System, Link 0=g16
 Initial command:
 /gpfs/loomis/apps/avx/software/Gaussian/16-C.01_AVX/g16/l1.exe "/home/fas/batista/pev4/scratch60/gauss-scratch/Gau-607.inp" -scrdir="/home/fas/batista/pev4/scratch60/gauss-scratch/"
 Entering Link 1 = /gpfs/loomis/apps/avx/software/Gaussian/16-C.01_AVX/g16/l1.exe PID=       609.
  
 Copyright (c) 1988-2019, Gaussian, Inc.  All Rights Reserved.
  
 This is part of the Gaussian(R) 16 program.  It is based on
 the Gaussian(R) 09 system (copyright 2009, Gaussian, Inc.),
 the Gaussian(R) 03 system (copyright 2003, Gaussian, Inc.),
 the Gaussian(R) 98 system (copyright 1998, Gaussian, Inc.),
 the Gaussian(R) 94 system (copyright 1995, Gaussian, Inc.),
 the Gaussian 92(TM) system (copyright 1992, Gaussian, Inc.),
 the Gaussian 90(TM) system (copyright 1990, Gaussian, Inc.),
 the Gaussian 88(TM) system (copyright 1988, Gaussian, Inc.),
 the Gaussian 86(TM) system (copyright 1986, Carnegie Mellon
 University), and the Gaussian 82(TM) system (copyright 1983,
 Carnegie Mellon University). Gaussian is a federally registered
 trademark of Gaussian, Inc.
  
 This software contains proprietary and confidential information,
 including trade secrets, belonging to Gaussian, Inc.
  
 This software is provided under written license and may be
 used, copied, transmitted, or stored only in accord with that
 written license.
  
 The following legend is applicable only to US Government
 contracts under FAR:
  
                    RESTRICTED RIGHTS LEGEND
  
 Use, reproduction and disclosure by the US Government is
 subject to restrictions as set forth in subparagraphs (a)
 and (c) of the Commercial Computer Software - Restricted
 Rights clause in FAR 52.227-19.
  
 Gaussian, Inc.
 340 Quinnipiac St., Bldg. 40, Wallingford CT 06492
  
  
 ---------------------------------------------------------------
 Warning -- This program may not be used in any manner that
 competes with the business of Gaussian, Inc. or will provide
 assistance to any competitor of Gaussian, Inc.  The licensee
 of this program is prohibited from giving any competitor of
 Gaussian, Inc. access to this program.  By using this program,
 the user acknowledges that Gaussian, Inc. is engaged in the
 business of creating and licensing software in the field of
 computational chemistry and represents and warrants to the
 licensee that it is not a competitor of Gaussian, Inc. and that
 it will not use this program in any manner prohibited above.
 ---------------------------------------------------------------
  

 Cite this work as:
 Gaussian 16, Revision C.01,
 M. J. Frisch, G. W. Trucks, H. B. Schlegel, G. E. Scuseria, 
 M. A. Robb, J. R. Cheeseman, G. Scalmani, V. Barone, 
 G. A. Petersson, H. Nakatsuji, X. Li, M. Caricato, A. V. Marenich, 
 J. Bloino, B. G. Janesko, R. Gomperts, B. Mennucci, H. P. Hratchian, 
 J. V. Ortiz, A. F. Izmaylov, J. L. Sonnenberg, D. Williams-Young, 
 F. Ding, F. Lipparini, F. Egidi, J. Goings, B. Peng, A. Petrone, 
 T. Henderson, D. Ranasinghe, V. G. Zakrzewski, J. Gao, N. Rega, 
 G. Zheng, W. Liang, M. Hada, M. Ehara, K. Toyota, R. Fukuda, 
 J. Hasegawa, M. Ishida, T. Nakajima, Y. Honda, O. Kitao, H. Nakai, 
 T. Vreven, K. Throssell, J. A. Montgomery, Jr., J. E. Peralta, 
 F. Ogliaro, M. J. Bearpark, J. J. Heyd, E. N. Brothers, K. N. Kudin, 
 V. N. Staroverov, T. A. Keith, R. Kobayashi, J. Normand, 
 K. Raghavachari, A. P. Rendell, J. C. Burant, S. S. Iyengar, 
 J. Tomasi, M. Cossi, J. M. Millam, M. Klene, C. Adamo, R. Cammi, 
 J. W. Ochterski, R. L. Martin, K. Morokuma, O. Farkas, 
 J. B. Foresman, and D. J. Fox, Gaussian, Inc., Wallingford CT, 2019.
 
 ******************************************
 Gaussian 16:  ES64L-G16RevC.01  3-Jul-2019
                28-Oct-2020 
 ******************************************
 %chk=config_12_13.chk
 %mem=58GB
 %nprocshared=10
 Will use up to   10 processors via shared memory.
 ----------------------------------------------------------------------
 #p opt=addgic freq wb97xd/cc-pvdz nosymm int=ultrafine scrf=(solvent=C
 arbonTetraChloride)
 ----------------------------------------------------------------------
 1/18=20,19=15,26=6,38=1,145=903/1,3;
 2/9=110,12=2,15=1,17=6,18=5,40=1/2;
 3/5=16,11=2,25=1,30=1,70=2201,71=1,72=11,74=-58,75=-5/1,2,3;
 4//1;
 5/5=2,38=5,53=11/2;
 6/7=2,8=2,9=2,10=2,28=1/1;
 7/30=1/1,2,3,16;
 1/18=20,19=15,26=6,145=903/3(2);
 2/9=110,15=1/2;
 99//99;
 2/9=110,15=1/2;
 3/5=16,11=2,25=1,30=1,70=2205,71=1,72=11,74=-58,75=-5/1,2,3;
 4/5=5,16=3,69=1/1;
 5/5=2,38=5,53=11/2;
 7/30=1/1,2,3,16;
 1/18=20,19=15,26=6,145=903/3(-5);
 2/9=110,15=1/2;
 6/7=2,8=2,9=2,10=2,19=2,28=1/1;
 99/9=1/99;
 Leave Link    1 at Wed Oct 28 00:06:57 2020, MaxMem=  7784628224 cpu:               5.5 elap:               0.6
 (Enter /gpfs/loomis/apps/avx/software/Gaussian/16-C.01_AVX/g16/l101.exe)
 ------------------------------------------------
 NM 2D-scan of HBT TD-WB97XD pVDZ in CTC Relaxed.
 ------------------------------------------------
 Symbolic Z-matrix:
 Charge =  0 Multiplicity = 1
 C                     1.59259  -3.24957  -0.00002 
 C                     1.0103   -1.9805   -0.00002 
 C                     1.77923  -0.78877  -0.00002 
 C                     3.16767  -0.89023  -0.00003 
 C                     3.7514   -2.16273  -0.00002 
 C                     2.98374  -3.33145  -0.00002 
 H                     0.96848  -4.14726  -0.00002 
 H                     3.78986   0.00853  -0.00003 
 H                     4.84099  -2.23684  -0.00002 
 H                     3.47194  -4.30799  -0.00001 
 N                     0.96919   0.35564  -0.00003 
 S                    -0.71017  -1.64773  -0.00002 
 C                    -1.35621   1.06198   0.00001 
 C                    -2.69946   0.76623   0.00001 
 C                    -0.87059   2.46276   0.00003 
 C                    -3.65688   1.82477   0.00003 
 H                    -3.05378  -0.26875   0. 
 C                    -1.8861    3.48029   0.00005 
 C                    -3.25064   3.15559   0.00004 
 H                    -4.71995   1.57182   0.00003 
 H                    -1.53903   4.51653   0.00007 
 H                    -3.99935   3.94993   0.00005 
 C                    -0.35602   0.04487  -0.00002 
 O                     0.35725   2.68432   0.00005 
 H                     1.14525   0.96068  0. 
 
 Initializing the GIC definitions file.
 Number of initial coordinates =   134
 Number of input entries/lines =    52
 Number of additional coordinates =     2
 Number of removed coordinates =     0
 Number of frozen coordinates =     2
 Number of final active and frozen coordinates =   136
 ITRead=  0  0  0  0  0  0  0  0  0  0  0  0  0  0  0  0  0  0  0  0
 ITRead=  0  0  0  0  0
 MicOpt= -1 -1 -1 -1 -1 -1 -1 -1 -1 -1 -1 -1 -1 -1 -1 -1 -1 -1 -1 -1
 MicOpt= -1 -1 -1 -1 -1
 NAtoms=     25 NQM=       25 NQMF=       0 NMMI=      0 NMMIF=      0
                NMic=       0 NMicF=      0.
                    Isotopes and Nuclear Properties:
 (Nuclear quadrupole moments (NQMom) in fm**2, nuclear magnetic moments (NMagM)
  in nuclear magnetons)

  Atom         1           2           3           4           5           6           7           8           9          10
 IAtWgt=          12          12          12          12          12          12           1           1           1           1
 AtmWgt=  12.0000000  12.0000000  12.0000000  12.0000000  12.0000000  12.0000000   1.0078250   1.0078250   1.0078250   1.0078250
 NucSpn=           0           0           0           0           0           0           1           1           1           1
 AtZEff=  -0.0000000  -0.0000000  -0.0000000  -0.0000000  -0.0000000  -0.0000000  -0.0000000  -0.0000000  -0.0000000  -0.0000000
 NQMom=    0.0000000   0.0000000   0.0000000   0.0000000   0.0000000   0.0000000   0.0000000   0.0000000   0.0000000   0.0000000
 NMagM=    0.0000000   0.0000000   0.0000000   0.0000000   0.0000000   0.0000000   2.7928460   2.7928460   2.7928460   2.7928460
 AtZNuc=   6.0000000   6.0000000   6.0000000   6.0000000   6.0000000   6.0000000   1.0000000   1.0000000   1.0000000   1.0000000

  Atom        11          12          13          14          15          16          17          18          19          20
 IAtWgt=          14          32          12          12          12          12           1          12          12           1
 AtmWgt=  14.0030740  31.9720718  12.0000000  12.0000000  12.0000000  12.0000000   1.0078250  12.0000000  12.0000000   1.0078250
 NucSpn=           2           0           0           0           0           0           1           0           0           1
 AtZEff=  -0.0000000  -0.0000000  -0.0000000  -0.0000000  -0.0000000  -0.0000000  -0.0000000  -0.0000000  -0.0000000  -0.0000000
 NQMom=    2.0440000   0.0000000   0.0000000   0.0000000   0.0000000   0.0000000   0.0000000   0.0000000   0.0000000   0.0000000
 NMagM=    0.4037610   0.0000000   0.0000000   0.0000000   0.0000000   0.0000000   2.7928460   0.0000000   0.0000000   2.7928460
 AtZNuc=   7.0000000  16.0000000   6.0000000   6.0000000   6.0000000   6.0000000   1.0000000   6.0000000   6.0000000   1.0000000

  Atom        21          22          23          24          25
 IAtWgt=           1           1          12          16           1
 AtmWgt=   1.0078250   1.0078250  12.0000000  15.9949146   1.0078250
 NucSpn=           1           1           0           0           1
 AtZEff=  -0.0000000  -0.0000000  -0.0000000  -0.0000000  -0.0000000
 NQMom=    0.0000000   0.0000000   0.0000000   0.0000000   0.0000000
 NMagM=    2.7928460   2.7928460   0.0000000   0.0000000   2.7928460
 AtZNuc=   1.0000000   1.0000000   6.0000000   8.0000000   1.0000000
 Leave Link  101 at Wed Oct 28 00:07:00 2020, MaxMem=  7784628224 cpu:              31.8 elap:               3.2
 (Enter /gpfs/loomis/apps/avx/software/Gaussian/16-C.01_AVX/g16/l103.exe)

 GradGradGradGradGradGradGradGradGradGradGradGradGradGradGradGradGradGrad
 Berny optimization.
 Initialization pass.
                           ----------------------------
                           !    Initial Parameters    !
                           ! (Angstroms and Degrees)  !
 --------------------------                            --------------------------
 ! Name  Definition              Value          Derivative Info.                !
 --------------------------------------------------------------------------------
 ! R1    R(1,2)                  1.3963         estimate D2E/DX2                !
 ! R2    R(1,6)                  1.3936         estimate D2E/DX2                !
 ! R3    R(1,7)                  1.0933         estimate D2E/DX2                !
 ! R4    R(2,3)                  1.4183         estimate D2E/DX2                !
 ! R5    R(2,12)                 1.7524         estimate D2E/DX2                !
 ! R6    R(3,4)                  1.3921         estimate D2E/DX2                !
 ! R7    R(3,11)                 1.4021         estimate D2E/DX2                !
 ! R8    R(4,5)                  1.4            estimate D2E/DX2                !
 ! R9    R(4,8)                  1.0931         estimate D2E/DX2                !
 ! R10   R(5,6)                  1.3983         estimate D2E/DX2                !
 ! R11   R(5,9)                  1.0921         estimate D2E/DX2                !
 ! R12   R(6,10)                 1.0918         estimate D2E/DX2                !
 ! R13   R(11,23)                1.3612         estimate D2E/DX2                !
 ! R14   R(11,25)                0.6301         estimate D2E/DX2                !
 ! R15   R(12,23)                1.7293         estimate D2E/DX2                !
 ! R16   R(13,14)                1.3754         estimate D2E/DX2                !
 ! R17   R(13,15)                1.4826         estimate D2E/DX2                !
 ! R18   R(13,23)                1.4265         estimate D2E/DX2                !
 ! R19   R(14,16)                1.4273         estimate D2E/DX2                !
 ! R20   R(14,17)                1.094          estimate D2E/DX2                !
 ! R21   R(15,18)                1.4376         estimate D2E/DX2                !
 ! R22   R(15,24)                1.2477         estimate D2E/DX2                !
 ! R23   R(16,19)                1.3914         estimate D2E/DX2                !
 ! R24   R(16,20)                1.0928         estimate D2E/DX2                !
 ! R25   R(18,19)                1.4026         estimate D2E/DX2                !
 ! R26   R(18,21)                1.0928         estimate D2E/DX2                !
 ! R27   R(19,22)                1.0916         estimate D2E/DX2                !
 ! A1    A(2,1,6)              118.0156         estimate D2E/DX2                !
 ! A2    A(2,1,7)              120.5447         estimate D2E/DX2                !
 ! A3    A(6,1,7)              121.4397         estimate D2E/DX2                !
 ! A4    A(1,2,3)              122.522          estimate D2E/DX2                !
 ! A5    A(1,2,12)             125.5938         estimate D2E/DX2                !
 ! A6    A(3,2,12)             111.8842         estimate D2E/DX2                !
 ! A7    A(2,3,4)              118.6515         estimate D2E/DX2                !
 ! A8    A(2,3,11)             111.8774         estimate D2E/DX2                !
 ! A9    A(4,3,11)             129.4711         estimate D2E/DX2                !
 ! A10   A(3,4,5)              118.8215         estimate D2E/DX2                !
 ! A11   A(3,4,8)              120.5148         estimate D2E/DX2                !
 ! A12   A(5,4,8)              120.6638         estimate D2E/DX2                !
 ! A13   A(4,5,6)              122.0594         estimate D2E/DX2                !
 ! A14   A(4,5,9)              118.533          estimate D2E/DX2                !
 ! A15   A(6,5,9)              119.4076         estimate D2E/DX2                !
 ! A16   A(1,6,5)              119.93           estimate D2E/DX2                !
 ! A17   A(1,6,10)             119.9307         estimate D2E/DX2                !
 ! A18   A(5,6,10)             120.1392         estimate D2E/DX2                !
 ! A19   A(3,11,23)            112.0938         estimate D2E/DX2                !
 ! A20   A(3,11,25)            128.4837         estimate D2E/DX2                !
 ! A21   A(23,11,25)           119.4225         estimate D2E/DX2                !
 ! A22   A(2,12,23)             89.1289         estimate D2E/DX2                !
 ! A23   A(14,13,15)           121.5369         estimate D2E/DX2                !
 ! A24   A(14,13,23)           122.1028         estimate D2E/DX2                !
 ! A25   A(15,13,23)           116.3602         estimate D2E/DX2                !
 ! A26   A(13,14,16)           119.7118         estimate D2E/DX2                !
 ! A27   A(13,14,17)           121.3146         estimate D2E/DX2                !
 ! A28   A(16,14,17)           118.9735         estimate D2E/DX2                !
 ! A29   A(13,15,18)           115.9368         estimate D2E/DX2                !
 ! A30   A(13,15,24)           119.3491         estimate D2E/DX2                !
 ! A31   A(18,15,24)           124.7141         estimate D2E/DX2                !
 ! A32   A(14,16,19)           120.8962         estimate D2E/DX2                !
 ! A33   A(14,16,20)           118.7444         estimate D2E/DX2                !
 ! A34   A(19,16,20)           120.3594         estimate D2E/DX2                !
 ! A35   A(15,18,19)           121.5577         estimate D2E/DX2                !
 ! A36   A(15,18,21)           116.5396         estimate D2E/DX2                !
 ! A37   A(19,18,21)           121.9027         estimate D2E/DX2                !
 ! A38   A(16,19,18)           120.3606         estimate D2E/DX2                !
 ! A39   A(16,19,22)           119.7185         estimate D2E/DX2                !
 ! A40   A(18,19,22)           119.9209         estimate D2E/DX2                !
 ! A41   A(11,23,12)           115.0156         estimate D2E/DX2                !
 ! A42   A(11,23,13)           121.3217         estimate D2E/DX2                !
 ! A43   A(12,23,13)           123.6626         estimate D2E/DX2                !
 ! D1    D(6,1,2,3)              0.0            estimate D2E/DX2                !
 ! D2    D(6,1,2,12)          -180.0            estimate D2E/DX2                !
 ! D3    D(7,1,2,3)            179.9999         estimate D2E/DX2                !
 ! D4    D(7,1,2,12)            -0.0001         estimate D2E/DX2                !
 ! D5    D(2,1,6,5)             -0.0001         estimate D2E/DX2                !
 ! D6    D(2,1,6,10)           179.9999         estimate D2E/DX2                !
 ! D7    D(7,1,6,5)            180.0            estimate D2E/DX2                !
 ! D8    D(7,1,6,10)             0.0            estimate D2E/DX2                !
 ! D9    D(1,2,3,4)              0.0002         estimate D2E/DX2                !
 ! D10   D(1,2,3,11)          -180.0            estimate D2E/DX2                !
 ! D11   D(12,2,3,4)          -179.9998         estimate D2E/DX2                !
 ! D12   D(12,2,3,11)            0.0            estimate D2E/DX2                !
 ! D13   D(1,2,12,23)          179.9997         estimate D2E/DX2                !
 ! D14   D(3,2,12,23)           -0.0002         estimate D2E/DX2                !
 ! D15   D(2,3,4,5)             -0.0002         estimate D2E/DX2                !
 ! D16   D(2,3,4,8)            179.9999         estimate D2E/DX2                !
 ! D17   D(11,3,4,5)          -180.0            estimate D2E/DX2                !
 ! D18   D(11,3,4,8)             0.0001         estimate D2E/DX2                !
 ! D19   D(2,3,11,23)            0.0003         estimate D2E/DX2                !
 ! D20   D(2,3,11,25)          179.9972         estimate D2E/DX2                !
 ! D21   D(4,3,11,23)         -179.9999         estimate D2E/DX2                !
 ! D22   D(4,3,11,25)           -0.003          estimate D2E/DX2                !
 ! D23   D(3,4,5,6)              0.0001         estimate D2E/DX2                !
 ! D24   D(3,4,5,9)           -179.9999         estimate D2E/DX2                !
 ! D25   D(8,4,5,6)            180.0            estimate D2E/DX2                !
 ! D26   D(8,4,5,9)              0.0            estimate D2E/DX2                !
 ! D27   D(4,5,6,1)              0.0001         estimate D2E/DX2                !
 ! D28   D(4,5,6,10)          -179.9999         estimate D2E/DX2                !
 ! D29   D(9,5,6,1)           -179.9999         estimate D2E/DX2                !
 ! D30   D(9,5,6,10)             0.0            estimate D2E/DX2                !
 ! D31   D(3,11,23,12)          -0.0005         estimate D2E/DX2                !
 ! D32   D(3,11,23,13)         179.9986         estimate D2E/DX2                !
 ! D33   D(25,11,23,12)       -179.9977         estimate D2E/DX2                !
 ! D34   D(25,11,23,13)          0.0014         estimate D2E/DX2                !
 ! D35   D(2,12,23,11)           0.0004         estimate D2E/DX2                !
 ! D36   D(2,12,23,13)        -179.9987         estimate D2E/DX2                !
 ! D37   D(15,13,14,16)          0.0007         estimate D2E/DX2                !
 ! D38   D(15,13,14,17)       -179.9996         estimate D2E/DX2                !
 ! D39   D(23,13,14,16)       -179.9994         estimate D2E/DX2                !
 ! D40   D(23,13,14,17)          0.0003         estimate D2E/DX2                !
 ! D41   D(14,13,15,18)         -0.0009         estimate D2E/DX2                !
 ! D42   D(14,13,15,24)        179.9989         estimate D2E/DX2                !
 ! D43   D(23,13,15,18)        179.9992         estimate D2E/DX2                !
 ! D44   D(23,13,15,24)         -0.001          estimate D2E/DX2                !
 ! D45   D(14,13,23,11)        179.9999         estimate D2E/DX2                !
 ! D46   D(14,13,23,12)         -0.0011         estimate D2E/DX2                !
 ! D47   D(15,13,23,11)         -0.0002         estimate D2E/DX2                !
 ! D48   D(15,13,23,12)        179.9988         estimate D2E/DX2                !
 ! D49   D(13,14,16,19)         -0.0001         estimate D2E/DX2                !
 ! D50   D(13,14,16,20)        179.9998         estimate D2E/DX2                !
 ! D51   D(17,14,16,19)       -179.9998         estimate D2E/DX2                !
 ! D52   D(17,14,16,20)          0.0001         estimate D2E/DX2                !
 ! D53   D(13,15,18,19)          0.0005         estimate D2E/DX2                !
 ! D54   D(13,15,18,21)        179.9999         estimate D2E/DX2                !
 ! D55   D(24,15,18,19)       -179.9993         estimate D2E/DX2                !
 ! D56   D(24,15,18,21)          0.0002         estimate D2E/DX2                !
 ! D57   D(14,16,19,18)         -0.0003         estimate D2E/DX2                !
 ! D58   D(14,16,19,22)        179.9999         estimate D2E/DX2                !
 ! D59   D(20,16,19,18)        179.9998         estimate D2E/DX2                !
 ! D60   D(20,16,19,22)         -0.0001         estimate D2E/DX2                !
 ! D61   D(15,18,19,16)          0.0            estimate D2E/DX2                !
 ! D62   D(15,18,19,22)        179.9999         estimate D2E/DX2                !
 ! D63   D(21,18,19,16)       -179.9994         estimate D2E/DX2                !
 ! D64   D(21,18,19,22)          0.0005         estimate D2E/DX2                !
 ! Qtot  GIC-1                  60.0            Frozen                          !
 ! Ptot  GIC-2                 100.0            Frozen                          !
 --------------------------------------------------------------------------------
 NOTE: GIC-type coordinates are in arbitrary units.
 Trust Radius=3.00D-01 FncErr=5.00D-06 GrdErr=5.00D-06 EigMax=2.50D+02 EigMin=1.00D-04
 Number of steps in this run=    146 maximum allowed number of steps=    150.
 GradGradGradGradGradGradGradGradGradGradGradGradGradGradGradGradGradGrad

 Leave Link  103 at Wed Oct 28 00:07:00 2020, MaxMem=  7784628224 cpu:               0.2 elap:               0.0
 (Enter /gpfs/loomis/apps/avx/software/Gaussian/16-C.01_AVX/g16/l202.exe)
                          Input orientation:                          
 ---------------------------------------------------------------------
 Center     Atomic      Atomic             Coordinates (Angstroms)
 Number     Number       Type             X           Y           Z
 ---------------------------------------------------------------------
      1          6           0        1.592588   -3.249565   -0.000019
      2          6           0        1.010302   -1.980498   -0.000022
      3          6           0        1.779230   -0.788769   -0.000024
      4          6           0        3.167669   -0.890228   -0.000027
      5          6           0        3.751396   -2.162731   -0.000023
      6          6           0        2.983735   -3.331448   -0.000018
      7          1           0        0.968484   -4.147261   -0.000016
      8          1           0        3.789863    0.008528   -0.000031
      9          1           0        4.840990   -2.236840   -0.000024
     10          1           0        3.471945   -4.307987   -0.000015
     11          7           0        0.969193    0.355640   -0.000027
     12         16           0       -0.710168   -1.647732   -0.000024
     13          6           0       -1.356208    1.061977    0.000009
     14          6           0       -2.699463    0.766233    0.000014
     15          6           0       -0.870591    2.462757    0.000035
     16          6           0       -3.656880    1.824766    0.000030
     17          1           0       -3.053777   -0.268754    0.000002
     18          6           0       -1.886104    3.480294    0.000046
     19          6           0       -3.250636    3.155586    0.000043
     20          1           0       -4.719953    1.571817    0.000031
     21          1           0       -1.539034    4.516534    0.000066
     22          1           0       -3.999351    3.949931    0.000053
     23          6           0       -0.356016    0.044869   -0.000020
     24          8           0        0.357246    2.684318    0.000050
     25          1           0        1.145255    0.960679   -0.000004
 ---------------------------------------------------------------------
                    Distance matrix (angstroms):
                    1          2          3          4          5
     1  C    0.000000
     2  C    1.396278   0.000000
     3  C    2.467864   1.418262   0.000000
     4  C    2.836786   2.417214   1.392141   0.000000
     5  C    2.416953   2.747146   2.403583   1.400001   0.000000
     6  C    1.393554   2.391549   2.813547   2.448139   1.398285
     7  H    1.093327   2.167167   3.454964   3.929972   3.418035
     8  H    3.929783   3.417921   2.162945   1.093110   2.171600
     9  H    3.402606   3.839256   3.386929   2.147875   1.092111
    10  H    2.156904   3.387756   3.905148   3.431276   2.163380
    11  N    3.658706   2.336500   1.402081   2.526952   3.752712
    12  S    2.805095   1.752355   2.633424   3.951131   4.491189
    13  C    5.223485   3.854480   3.640911   4.927126   6.040394
    14  C    5.877784   4.615938   4.740962   6.096483   7.084661
    15  C    6.220762   4.824963   4.194516   5.248814   6.538952
    16  C    7.301079   6.021845   6.031737   7.344771   8.413245
    17  H    5.520321   4.409852   4.860902   6.252409   7.063818
    18  C    7.575771   6.181376   5.626684   6.681473   7.976537
    19  C    8.030118   6.673451   6.391986   7.587045   8.792778
    20  H    7.943167   6.742014   6.914603   8.262944   9.258002
    21  H    8.373730   6.979293   6.257564   7.168412   8.520636
    22  H    9.116059   7.763156   7.473103   8.648312   9.871105
    23  C    3.827578   2.443140   2.292210   3.645650   4.663082
    24  O    6.061109   4.710306   3.752914   4.547071   5.917274
    25  H    4.233942   2.944271   1.860777   2.741535   4.067882
                    6          7          8          9         10
     6  C    0.000000
     7  H    2.174118   0.000000
     8  H    3.435882   5.023024   0.000000
     9  H    2.155820   4.318103   2.479223   0.000000
    10  H    1.091777   2.508615   4.328207   2.482727   0.000000
    11  N    4.201547   4.502902   2.841948   4.659589   5.292748
    12  S    4.059534   3.010899   4.795152   5.582330   4.956513
    13  C    6.175539   5.704415   5.252790   7.020503   7.221327
    14  C    7.006406   6.131579   6.533412   8.116457   7.989617
    15  C    6.959068   6.861088   5.267168   7.396510   8.043667
    16  C    8.407396   7.553747   7.665031   9.418622   9.403765
    17  H    6.769907   5.587611   6.849255   8.136381   7.674662
    18  C    8.373480   8.144217   6.653552   8.828330   9.453359
    19  C    8.997166   8.434011   7.711848   9.723820  10.044800
    20  H    9.131747   8.066360   8.652216  10.291623  10.083614
    21  H    9.057939   9.019367   6.979918   9.290466  10.148008
    22  H   10.088704   9.499679   8.729634  10.790169  11.136133
    23  C    4.749047   4.396391   4.146039   5.675832   5.796606
    24  O    6.564136   6.858869   4.352322   6.657458   7.654650
    25  H    4.669299   5.110998   2.810790   4.886981   5.759541
                   11         12         13         14         15
    11  N    0.000000
    12  S    2.614146   0.000000
    13  C    2.430309   2.785658   0.000000
    14  C    3.691561   3.128022   1.375427   0.000000
    15  C    2.797274   4.113618   1.482568   2.494588   0.000000
    16  C    4.853749   4.554268   2.423827   1.427284   2.858398
    17  H    4.071137   2.719206   2.156985   1.093954   3.496778
    18  C    4.232751   5.261129   2.475691   2.833316   1.437585
    19  C    5.064252   5.433769   2.823483   2.452101   2.478836
    20  H    5.817686   5.142360   3.402163   2.175165   3.951122
    21  H    4.858419   6.219743   3.459392   3.925730   2.159819
    22  H    6.132320   6.492500   3.914905   3.438843   3.464221
    23  C    1.361161   1.729255   1.426497   2.451960   2.472037
    24  O    2.407741   4.461618   2.359643   3.608673   1.247667
    25  H    0.630134   3.201000   2.503513   3.849632   2.513936
                   16         17         18         19         20
    16  C    0.000000
    17  H    2.178660   0.000000
    18  C    2.424132   3.926681   0.000000
    19  C    1.391444   3.429994   1.402634   0.000000
    20  H    1.092752   2.482709   3.416575   2.160375   0.000000
    21  H    3.425038   5.019306   1.092818   2.186724   4.334698
    22  H    2.152582   4.323356   2.164802   1.091585   2.484893
    23  C    3.750165   2.715929   3.760760   4.249163   4.623366
    24  O    4.105123   4.511731   2.380378   3.638531   5.197654
    25  H    4.879257   4.375314   3.941776   4.913398   5.896962
                   21         22         23         24         25
    21  H    0.000000
    22  H    2.524718   0.000000
    23  C    4.625508   5.340730   0.000000
    24  O    2.636834   4.536708   2.734124   0.000000
    25  H    4.455279   5.950008   1.758557   1.895228   0.000000
 Symmetry turned off by external request.
 Stoichiometry    C13H9NOS
 Framework group  C1[X(C13H9NOS)]
 Deg. of freedom    69
 Full point group                 C1      NOp   1
 Rotational constants (GHZ):           1.4127906           0.2861236           0.2379359
 Leave Link  202 at Wed Oct 28 00:07:00 2020, MaxMem=  7784628224 cpu:               0.2 elap:               0.1
 (Enter /gpfs/loomis/apps/avx/software/Gaussian/16-C.01_AVX/g16/l301.exe)
 Standard basis: CC-pVDZ (5D, 7F)
 Ernie: Thresh=  0.10000D-02 Tol=  0.10000D-05 Strict=F.
 Ernie:  40 primitive shells out of 425 were deleted.
   273 basis functions,   629 primitive gaussians,   289 cartesian basis functions
    59 alpha electrons       59 beta electrons
       nuclear repulsion energy      1103.9879923315 Hartrees.
 IExCor= 4639 DFT=T Ex+Corr=wB97XD ExCW=0 ScaHFX=  1.000000
 ScaDFX=  1.000000  1.000000  1.000000  1.000000 ScalE2=  1.000000  1.000000
 IRadAn=      5 IRanWt=     -1 IRanGd=            0 ICorTp=0 IEmpDi=121
 HFx  wShort=  0.000000 wLong=  0.200000 cFull=  0.222036 cShort=  0.000000 cLong=  0.777964
 DFx  wShort=  0.000000 wLong=  0.200000 cFull=  0.000000 cShort=  0.000000 cLong=  1.000000
 NAtoms=   25 NActive=   25 NUniq=   25 SFac= 1.00D+00 NAtFMM=   60 NAOKFM=F Big=F
 Integral buffers will be    131072 words long.
 Raffenetti 2 integral format.
 Two-electron integral symmetry is turned off.
 R6Disp:  Grimme-D2 Dispersion energy=       -0.0140971249 Hartrees.
 Nuclear repulsion after empirical dispersion term =     1103.9738952066 Hartrees.
 ------------------------------------------------------------------------------
 Polarizable Continuum Model (PCM)
 =================================
 Model                : PCM.
 Atomic radii         : UFF (Universal Force Field).
 Polarization charges : Total charges.
 Charge compensation  : None.
 Solution method      : On-the-fly selection.
 Cavity type          : Scaled VdW (van der Waals Surface) (Alpha=1.100).
 Cavity algorithm     : GePol (No added spheres)
                        Default sphere list used, NSphG=   25.
                        Lebedev-Laikov grids with approx.  5.0 points / Ang**2.
                        Smoothing algorithm: York/Karplus (Gamma=1.0000).
                        Polarization charges: spherical gaussians, with
                                              point-specific exponents (IZeta= 3).
                        Self-potential: point-specific (ISelfS= 7).
                        Self-field    : sphere-specific E.n sum rule (ISelfD= 2).
 1st derivatives      : Analytical E(r).r(x)/FMM algorithm (CHGder, D1EAlg=3).
                        Cavity 1st derivative terms included.
 Solvent              : CarbonTetraChloride, Eps=   2.228000 Eps(inf)=   2.131892
 ------------------------------------------------------------------------------
 GePol: Number of generator spheres                  =      25
 GePol: Total number of spheres                      =      25
 GePol: Number of exposed spheres                    =      25 (100.00%)
 GePol: Number of points                             =    2188
 GePol: Average weight of points                     =       0.12
 GePol: Minimum weight of points                     =   0.40D-08
 GePol: Maximum weight of points                     =    0.20577
 GePol: Number of points with low weight             =     138
 GePol: Fraction of low-weight points (<1% of avg)   =       6.31%
 GePol: Cavity surface area                          =    271.676 Ang**2
 GePol: Cavity volume                                =    291.256 Ang**3
 Leave Link  301 at Wed Oct 28 00:07:00 2020, MaxMem=  7784628224 cpu:               0.8 elap:               0.1
 (Enter /gpfs/loomis/apps/avx/software/Gaussian/16-C.01_AVX/g16/l302.exe)
 NPDir=0 NMtPBC=     1 NCelOv=     1 NCel=       1 NClECP=     1 NCelD=      1
         NCelK=      1 NCelE2=     1 NClLst=     1 CellRange=     0.0.
 One-electron integrals computed using PRISM.
 NBasis=   273 RedAO= T EigKep=  3.01D-04  NBF=   273
 NBsUse=   273 1.00D-06 EigRej= -1.00D+00 NBFU=   273
 Precomputing XC quadrature grid using
 IXCGrd= 4 IRadAn=           5 IRanWt=          -1 IRanGd=           0 AccXCQ= 0.00D+00.
 Generated NRdTot=       0 NPtTot=           0 NUsed=           0 NTot=          32
 NSgBfM=   288   288   288   288   288 MxSgAt=    25 MxSgA2=    25.
 Leave Link  302 at Wed Oct 28 00:07:01 2020, MaxMem=  7784628224 cpu:               6.4 elap:               0.7
 (Enter /gpfs/loomis/apps/avx/software/Gaussian/16-C.01_AVX/g16/l303.exe)
 DipDrv:  MaxL=1.
 Leave Link  303 at Wed Oct 28 00:07:01 2020, MaxMem=  7784628224 cpu:               0.7 elap:               0.1
 (Enter /gpfs/loomis/apps/avx/software/Gaussian/16-C.01_AVX/g16/l401.exe)
 ExpMin= 1.22D-01 ExpMax= 1.11D+05 ExpMxC= 1.07D+03 IAcc=3 IRadAn=         5 AccDes= 0.00D+00
 Harris functional with IExCor= 4639 and IRadAn=       5 diagonalized for initial guess.
 HarFok:  IExCor= 4639 AccDes= 0.00D+00 IRadAn=         5 IDoV= 1 UseB2=F ITyADJ=14
 ICtDFT=  3500011 ScaDFX=  1.000000  1.000000  1.000000  1.000000
 FoFCou: FMM=F IPFlag=           0 FMFlag=      100000 FMFlg1=           0
         NFxFlg=           0 DoJE=T BraDBF=F KetDBF=T FulRan=T
         wScrn=  0.000000 ICntrl=       500 IOpCl=  0 I1Cent=   200000004 NGrid=           0
         NMat0=    1 NMatS0=      1 NMatT0=    0 NMatD0=    1 NMtDS0=    0 NMtDT0=    0
 Symmetry not used in FoFCou.
 Harris En= -994.110185069169    
 JPrj=0 DoOrth=F DoCkMO=F.
 Leave Link  401 at Wed Oct 28 00:07:03 2020, MaxMem=  7784628224 cpu:              17.1 elap:               2.0
 (Enter /gpfs/loomis/apps/avx/software/Gaussian/16-C.01_AVX/g16/l502.exe)
 Two-electron integral symmetry not used.
 Closed shell SCF:
 Using DIIS extrapolation, IDIIS=  1040.
 NGot=  7784628224 LenX=  7784455381 LenY=  7784371419
 Requested convergence on RMS density matrix=1.00D-08 within 128 cycles.
 Requested convergence on MAX density matrix=1.00D-06.
 Requested convergence on             energy=1.00D-06.
 No special actions if energy rises.
 Fock matrices will be formed incrementally for  20 cycles.

 Cycle   1  Pass 1  IDiag  1:
 FoFJK:  IHMeth= 1 ICntrl=       0 DoSepK=T KAlg= 0 I1Cent=           0 FoldK=F
 IRaf=         1 NMat=       1 IRICut=       1 DoRegI=T DoRafI=F ISym2E= 0 IDoP0=0 IntGTp=1.
 FoFCou: FMM=F IPFlag=           0 FMFlag=      100000 FMFlg1=           0
         NFxFlg=           0 DoJE=T BraDBF=F KetDBF=F FulRan=T
         wScrn=  0.000000 ICntrl=       500 IOpCl=  0 I1Cent=           0 NGrid=           0
         NMat0=    1 NMatS0=      1 NMatT0=    0 NMatD0=    1 NMtDS0=    0 NMtDT0=    0
 Symmetry not used in FoFCou.
 Inv3:  Mode=1 IEnd=    14362032.
 Iteration    1 A*A^-1 deviation from unit magnitude is 7.33D-15 for   2174.
 Iteration    1 A*A^-1 deviation from orthogonality  is 1.95D-15 for   2174   2100.
 Iteration    1 A^-1*A deviation from unit magnitude is 7.33D-15 for   2174.
 Iteration    1 A^-1*A deviation from orthogonality  is 1.75D-15 for   1120    634.
 E= -1028.20883738581    
 DIIS: error= 4.15D-02 at cycle   1 NSaved=   1.
 NSaved= 1 IEnMin= 1 EnMin= -1028.20883738581     IErMin= 1 ErrMin= 4.15D-02
 ErrMax= 4.15D-02  0.00D+00 EMaxC= 1.00D-01 BMatC= 4.06D-01 BMatP= 4.06D-01
 IDIUse=3 WtCom= 5.85D-01 WtEn= 4.15D-01
 Coeff-Com:  0.100D+01
 Coeff-En:   0.100D+01
 Coeff:      0.100D+01
 Gap=     0.292 Goal=   None    Shift=    0.000
 GapD=    0.292 DampG=1.000 DampE=0.500 DampFc=0.5000 IDamp=-1.
 Damping current iteration by 5.00D-01
 RMSDP=3.77D-03 MaxDP=2.62D-01              OVMax= 2.18D-01

 Cycle   2  Pass 1  IDiag  1:
 RMSU=  1.88D-03    CP:  9.93D-01
 E= -1028.33718741886     Delta-E=       -0.128350033046 Rises=F Damp=T
 DIIS: error= 1.07D-02 at cycle   2 NSaved=   2.
 NSaved= 2 IEnMin= 2 EnMin= -1028.33718741886     IErMin= 2 ErrMin= 1.07D-02
 ErrMax= 1.07D-02  0.00D+00 EMaxC= 1.00D-01 BMatC= 5.82D-02 BMatP= 4.06D-01
 IDIUse=3 WtCom= 8.93D-01 WtEn= 1.07D-01
 Coeff-Com: -0.269D+00 0.127D+01
 Coeff-En:   0.000D+00 0.100D+01
 Coeff:     -0.240D+00 0.124D+01
 Gap=     0.366 Goal=   None    Shift=    0.000
 RMSDP=1.17D-03 MaxDP=2.97D-02 DE=-1.28D-01 OVMax= 1.42D-01

 Cycle   3  Pass 1  IDiag  1:
 RMSU=  1.13D-03    CP:  9.91D-01  1.16D+00
 E= -1028.45479095330     Delta-E=       -0.117603534443 Rises=F Damp=F
 DIIS: error= 5.31D-03 at cycle   3 NSaved=   3.
 NSaved= 3 IEnMin= 3 EnMin= -1028.45479095330     IErMin= 3 ErrMin= 5.31D-03
 ErrMax= 5.31D-03  0.00D+00 EMaxC= 1.00D-01 BMatC= 1.44D-02 BMatP= 5.82D-02
 IDIUse=3 WtCom= 9.47D-01 WtEn= 5.31D-02
 Coeff-Com: -0.193D+00 0.473D+00 0.720D+00
 Coeff-En:   0.000D+00 0.000D+00 0.100D+01
 Coeff:     -0.183D+00 0.448D+00 0.735D+00
 Gap=     0.231 Goal=   None    Shift=    0.000
 RMSDP=5.09D-04 MaxDP=2.14D-02 DE=-1.18D-01 OVMax= 4.56D-02

 Cycle   4  Pass 1  IDiag  1:
 RMSU=  4.05D-04    CP:  9.89D-01  1.31D+00  8.87D-01
 E= -1028.46880737700     Delta-E=       -0.014016423695 Rises=F Damp=F
 DIIS: error= 1.87D-03 at cycle   4 NSaved=   4.
 NSaved= 4 IEnMin= 4 EnMin= -1028.46880737700     IErMin= 4 ErrMin= 1.87D-03
 ErrMax= 1.87D-03  0.00D+00 EMaxC= 1.00D-01 BMatC= 1.66D-03 BMatP= 1.44D-02
 IDIUse=3 WtCom= 9.81D-01 WtEn= 1.87D-02
 Coeff-Com: -0.684D-01 0.135D+00 0.337D+00 0.597D+00
 Coeff-En:   0.000D+00 0.000D+00 0.000D+00 0.100D+01
 Coeff:     -0.671D-01 0.132D+00 0.330D+00 0.604D+00
 Gap=     0.234 Goal=   None    Shift=    0.000
 RMSDP=1.60D-04 MaxDP=8.43D-03 DE=-1.40D-02 OVMax= 1.19D-02

 Cycle   5  Pass 1  IDiag  1:
 RMSU=  1.13D-04    CP:  9.89D-01  1.32D+00  9.49D-01  7.87D-01
 E= -1028.47060934876     Delta-E=       -0.001801971767 Rises=F Damp=F
 DIIS: error= 6.42D-04 at cycle   5 NSaved=   5.
 NSaved= 5 IEnMin= 5 EnMin= -1028.47060934876     IErMin= 5 ErrMin= 6.42D-04
 ErrMax= 6.42D-04  0.00D+00 EMaxC= 1.00D-01 BMatC= 6.40D-05 BMatP= 1.66D-03
 IDIUse=3 WtCom= 9.94D-01 WtEn= 6.42D-03
 Coeff-Com: -0.994D-05-0.635D-02 0.240D-01 0.161D+00 0.822D+00
 Coeff-En:   0.000D+00 0.000D+00 0.000D+00 0.000D+00 0.100D+01
 Coeff:     -0.988D-05-0.631D-02 0.239D-01 0.159D+00 0.823D+00
 Gap=     0.235 Goal=   None    Shift=    0.000
 RMSDP=6.48D-05 MaxDP=2.20D-03 DE=-1.80D-03 OVMax= 7.67D-03

 Cycle   6  Pass 1  IDiag  1:
 RMSU=  4.21D-05    CP:  9.88D-01  1.32D+00  9.67D-01  8.89D-01  1.14D+00
 E= -1028.47076597508     Delta-E=       -0.000156626316 Rises=F Damp=F
 DIIS: error= 2.82D-04 at cycle   6 NSaved=   6.
 NSaved= 6 IEnMin= 6 EnMin= -1028.47076597508     IErMin= 6 ErrMin= 2.82D-04
 ErrMax= 2.82D-04  0.00D+00 EMaxC= 1.00D-01 BMatC= 1.29D-05 BMatP= 6.40D-05
 IDIUse=3 WtCom= 9.97D-01 WtEn= 2.82D-03
 Coeff-Com:  0.175D-01-0.357D-01-0.705D-01-0.856D-01 0.222D+00 0.952D+00
 Coeff-En:   0.000D+00 0.000D+00 0.000D+00 0.000D+00 0.000D+00 0.100D+01
 Coeff:      0.174D-01-0.356D-01-0.703D-01-0.853D-01 0.222D+00 0.952D+00
 Gap=     0.236 Goal=   None    Shift=    0.000
 RMSDP=4.32D-05 MaxDP=2.20D-03 DE=-1.57D-04 OVMax= 5.11D-03

 Cycle   7  Pass 1  IDiag  1:
 RMSU=  2.03D-05    CP:  9.88D-01  1.32D+00  9.82D-01  9.30D-01  1.38D+00
                    CP:  1.34D+00
 E= -1028.47081433594     Delta-E=       -0.000048360860 Rises=F Damp=F
 DIIS: error= 9.29D-05 at cycle   7 NSaved=   7.
 NSaved= 7 IEnMin= 7 EnMin= -1028.47081433594     IErMin= 7 ErrMin= 9.29D-05
 ErrMax= 9.29D-05  0.00D+00 EMaxC= 1.00D-01 BMatC= 2.60D-06 BMatP= 1.29D-05
 IDIUse=1 WtCom= 1.00D+00 WtEn= 0.00D+00
 Coeff-Com:  0.658D-02-0.123D-01-0.281D-01-0.555D-01-0.306D-01 0.363D+00
 Coeff-Com:  0.756D+00
 Coeff:      0.658D-02-0.123D-01-0.281D-01-0.555D-01-0.306D-01 0.363D+00
 Coeff:      0.756D+00
 Gap=     0.236 Goal=   None    Shift=    0.000
 RMSDP=1.64D-05 MaxDP=6.21D-04 DE=-4.84D-05 OVMax= 2.09D-03

 Cycle   8  Pass 1  IDiag  1:
 RMSU=  8.51D-06    CP:  9.88D-01  1.32D+00  9.84D-01  9.40D-01  1.44D+00
                    CP:  1.60D+00  1.18D+00
 E= -1028.47082199564     Delta-E=       -0.000007659698 Rises=F Damp=F
 DIIS: error= 6.57D-05 at cycle   8 NSaved=   8.
 NSaved= 8 IEnMin= 8 EnMin= -1028.47082199564     IErMin= 8 ErrMin= 6.57D-05
 ErrMax= 6.57D-05  0.00D+00 EMaxC= 1.00D-01 BMatC= 4.76D-07 BMatP= 2.60D-06
 IDIUse=1 WtCom= 1.00D+00 WtEn= 0.00D+00
 Coeff-Com: -0.160D-02 0.348D-02 0.720D-02 0.221D-02-0.383D-01-0.108D+00
 Coeff-Com:  0.217D+00 0.918D+00
 Coeff:     -0.160D-02 0.348D-02 0.720D-02 0.221D-02-0.383D-01-0.108D+00
 Coeff:      0.217D+00 0.918D+00
 Gap=     0.236 Goal=   None    Shift=    0.000
 RMSDP=8.45D-06 MaxDP=2.32D-04 DE=-7.66D-06 OVMax= 1.42D-03

 Cycle   9  Pass 1  IDiag  1:
 RMSU=  3.43D-06    CP:  9.88D-01  1.32D+00  9.83D-01  9.40D-01  1.46D+00
                    CP:  1.71D+00  1.44D+00  1.17D+00
 E= -1028.47082395753     Delta-E=       -0.000001961892 Rises=F Damp=F
 DIIS: error= 1.97D-05 at cycle   9 NSaved=   9.
 NSaved= 9 IEnMin= 9 EnMin= -1028.47082395753     IErMin= 9 ErrMin= 1.97D-05
 ErrMax= 1.97D-05  0.00D+00 EMaxC= 1.00D-01 BMatC= 1.50D-07 BMatP= 4.76D-07
 IDIUse=1 WtCom= 1.00D+00 WtEn= 0.00D+00
 Coeff-Com: -0.164D-02 0.325D-02 0.748D-02 0.912D-02-0.104D-01-0.116D+00
 Coeff-Com: -0.445D-01 0.394D+00 0.759D+00
 Coeff:     -0.164D-02 0.325D-02 0.748D-02 0.912D-02-0.104D-01-0.116D+00
 Coeff:     -0.445D-01 0.394D+00 0.759D+00
 Gap=     0.237 Goal=   None    Shift=    0.000
 RMSDP=4.50D-06 MaxDP=1.66D-04 DE=-1.96D-06 OVMax= 6.01D-04

 Cycle  10  Pass 1  IDiag  1:
 RMSU=  1.74D-06    CP:  9.88D-01  1.32D+00  9.83D-01  9.40D-01  1.47D+00
                    CP:  1.77D+00  1.54D+00  1.43D+00  1.13D+00
 E= -1028.47082440689     Delta-E=       -0.000000449361 Rises=F Damp=F
 DIIS: error= 1.39D-05 at cycle  10 NSaved=  10.
 NSaved=10 IEnMin=10 EnMin= -1028.47082440689     IErMin=10 ErrMin= 1.39D-05
 ErrMax= 1.39D-05  0.00D+00 EMaxC= 1.00D-01 BMatC= 2.22D-08 BMatP= 1.50D-07
 IDIUse=1 WtCom= 1.00D+00 WtEn= 0.00D+00
 Coeff-Com:  0.354D-04-0.145D-03 0.149D-03 0.156D-02 0.922D-02-0.122D-01
 Coeff-Com: -0.726D-01-0.838D-01 0.269D+00 0.889D+00
 Coeff:      0.354D-04-0.145D-03 0.149D-03 0.156D-02 0.922D-02-0.122D-01
 Coeff:     -0.726D-01-0.838D-01 0.269D+00 0.889D+00
 Gap=     0.237 Goal=   None    Shift=    0.000
 RMSDP=2.07D-06 MaxDP=5.75D-05 DE=-4.49D-07 OVMax= 3.81D-04

 Cycle  11  Pass 1  IDiag  1:
 RMSU=  6.45D-07    CP:  9.88D-01  1.32D+00  9.84D-01  9.40D-01  1.48D+00
                    CP:  1.79D+00  1.59D+00  1.53D+00  1.44D+00  1.17D+00
 E= -1028.47082450571     Delta-E=       -0.000000098824 Rises=F Damp=F
 DIIS: error= 4.26D-06 at cycle  11 NSaved=  11.
 NSaved=11 IEnMin=11 EnMin= -1028.47082450571     IErMin=11 ErrMin= 4.26D-06
 ErrMax= 4.26D-06  0.00D+00 EMaxC= 1.00D-01 BMatC= 4.77D-09 BMatP= 2.22D-08
 IDIUse=1 WtCom= 1.00D+00 WtEn= 0.00D+00
 Coeff-Com:  0.256D-03-0.528D-03-0.101D-02-0.896D-03 0.524D-02 0.121D-01
 Coeff-Com: -0.177D-01-0.812D-01-0.499D-01 0.296D+00 0.838D+00
 Coeff:      0.256D-03-0.528D-03-0.101D-02-0.896D-03 0.524D-02 0.121D-01
 Coeff:     -0.177D-01-0.812D-01-0.499D-01 0.296D+00 0.838D+00
 Gap=     0.237 Goal=   None    Shift=    0.000
 RMSDP=7.97D-07 MaxDP=2.54D-05 DE=-9.88D-08 OVMax= 1.21D-04

 Cycle  12  Pass 1  IDiag  1:
 RMSU=  2.58D-07    CP:  9.88D-01  1.32D+00  9.84D-01  9.41D-01  1.48D+00
                    CP:  1.79D+00  1.60D+00  1.57D+00  1.53D+00  1.41D+00
                    CP:  1.17D+00
 E= -1028.47082451992     Delta-E=       -0.000000014204 Rises=F Damp=F
 DIIS: error= 1.65D-06 at cycle  12 NSaved=  12.
 NSaved=12 IEnMin=12 EnMin= -1028.47082451992     IErMin=12 ErrMin= 1.65D-06
 ErrMax= 1.65D-06  0.00D+00 EMaxC= 1.00D-01 BMatC= 6.79D-10 BMatP= 4.77D-09
 IDIUse=1 WtCom= 1.00D+00 WtEn= 0.00D+00
 Coeff-Com:  0.118D-03-0.227D-03-0.518D-03-0.918D-03 0.515D-03 0.818D-02
 Coeff-Com:  0.885D-02-0.145D-01-0.851D-01-0.603D-01 0.292D+00 0.851D+00
 Coeff:      0.118D-03-0.227D-03-0.518D-03-0.918D-03 0.515D-03 0.818D-02
 Coeff:      0.885D-02-0.145D-01-0.851D-01-0.603D-01 0.292D+00 0.851D+00
 Gap=     0.237 Goal=   None    Shift=    0.000
 RMSDP=3.27D-07 MaxDP=9.13D-06 DE=-1.42D-08 OVMax= 5.06D-05

 Cycle  13  Pass 1  IDiag  1:
 RMSU=  9.83D-08    CP:  9.88D-01  1.32D+00  9.84D-01  9.41D-01  1.48D+00
                    CP:  1.80D+00  1.60D+00  1.59D+00  1.57D+00  1.50D+00
                    CP:  1.39D+00  1.07D+00
 E= -1028.47082452226     Delta-E=       -0.000000002339 Rises=F Damp=F
 DIIS: error= 6.47D-07 at cycle  13 NSaved=  13.
 NSaved=13 IEnMin=13 EnMin= -1028.47082452226     IErMin=13 ErrMin= 6.47D-07
 ErrMax= 6.47D-07  0.00D+00 EMaxC= 1.00D-01 BMatC= 6.73D-11 BMatP= 6.79D-10
 IDIUse=1 WtCom= 1.00D+00 WtEn= 0.00D+00
 Coeff-Com: -0.914D-05 0.208D-04 0.337D-04-0.723D-04-0.250D-03 0.256D-03
 Coeff-Com:  0.306D-02 0.582D-02-0.115D-01-0.370D-01-0.544D-01 0.177D+00
 Coeff-Com:  0.917D+00
 Coeff:     -0.914D-05 0.208D-04 0.337D-04-0.723D-04-0.250D-03 0.256D-03
 Coeff:      0.306D-02 0.582D-02-0.115D-01-0.370D-01-0.544D-01 0.177D+00
 Coeff:      0.917D+00
 Gap=     0.237 Goal=   None    Shift=    0.000
 RMSDP=8.87D-08 MaxDP=2.24D-06 DE=-2.34D-09 OVMax= 1.04D-05

 Cycle  14  Pass 1  IDiag  1:
 RMSU=  3.53D-08    CP:  9.88D-01  1.32D+00  9.84D-01  9.41D-01  1.48D+00
                    CP:  1.80D+00  1.60D+00  1.59D+00  1.58D+00  1.53D+00
                    CP:  1.44D+00  1.23D+00  1.17D+00
 E= -1028.47082452247     Delta-E=       -0.000000000211 Rises=F Damp=F
 DIIS: error= 1.86D-07 at cycle  14 NSaved=  14.
 NSaved=14 IEnMin=14 EnMin= -1028.47082452247     IErMin=14 ErrMin= 1.86D-07
 ErrMax= 1.86D-07  0.00D+00 EMaxC= 1.00D-01 BMatC= 1.02D-11 BMatP= 6.73D-11
 IDIUse=1 WtCom= 1.00D+00 WtEn= 0.00D+00
 Coeff-Com: -0.148D-04 0.295D-04 0.650D-04 0.636D-04-0.127D-03-0.759D-03
 Coeff-Com:  0.864D-04 0.372D-02 0.443D-02-0.541D-02-0.502D-01-0.321D-01
 Coeff-Com:  0.331D+00 0.749D+00
 Coeff:     -0.148D-04 0.295D-04 0.650D-04 0.636D-04-0.127D-03-0.759D-03
 Coeff:      0.864D-04 0.372D-02 0.443D-02-0.541D-02-0.502D-01-0.321D-01
 Coeff:      0.331D+00 0.749D+00
 Gap=     0.237 Goal=   None    Shift=    0.000
 RMSDP=2.36D-08 MaxDP=5.68D-07 DE=-2.11D-10 OVMax= 2.88D-06

 Cycle  15  Pass 1  IDiag  1:
 RMSU=  1.22D-08    CP:  9.88D-01  1.32D+00  9.84D-01  9.41D-01  1.48D+00
                    CP:  1.80D+00  1.60D+00  1.59D+00  1.58D+00  1.53D+00
                    CP:  1.46D+00  1.26D+00  1.31D+00  1.10D+00
 E= -1028.47082452249     Delta-E=       -0.000000000023 Rises=F Damp=F
 DIIS: error= 7.18D-08 at cycle  15 NSaved=  15.
 NSaved=15 IEnMin=15 EnMin= -1028.47082452249     IErMin=15 ErrMin= 7.18D-08
 ErrMax= 7.18D-08  0.00D+00 EMaxC= 1.00D-01 BMatC= 1.29D-12 BMatP= 1.02D-11
 IDIUse=1 WtCom= 1.00D+00 WtEn= 0.00D+00
 Coeff-Com: -0.224D-05 0.396D-05 0.127D-04 0.334D-04 0.550D-05-0.313D-03
 Coeff-Com: -0.649D-03 0.243D-04 0.359D-02 0.690D-02-0.183D-02-0.515D-01
 Coeff-Com: -0.875D-01 0.172D+00 0.959D+00
 Coeff:     -0.224D-05 0.396D-05 0.127D-04 0.334D-04 0.550D-05-0.313D-03
 Coeff:     -0.649D-03 0.243D-04 0.359D-02 0.690D-02-0.183D-02-0.515D-01
 Coeff:     -0.875D-01 0.172D+00 0.959D+00
 Gap=     0.237 Goal=   None    Shift=    0.000
 RMSDP=1.25D-08 MaxDP=2.93D-07 DE=-2.34D-11 OVMax= 1.42D-06

 Cycle  16  Pass 1  IDiag  1:
 RMSU=  5.12D-09    CP:  9.88D-01  1.32D+00  9.84D-01  9.41D-01  1.48D+00
                    CP:  1.80D+00  1.60D+00  1.59D+00  1.58D+00  1.53D+00
                    CP:  1.46D+00  1.27D+00  1.38D+00  1.29D+00  1.21D+00
 E= -1028.47082452249     Delta-E=        0.000000000001 Rises=F Damp=F
 DIIS: error= 2.54D-08 at cycle  16 NSaved=  16.
 NSaved=16 IEnMin=15 EnMin= -1028.47082452249     IErMin=16 ErrMin= 2.54D-08
 ErrMax= 2.54D-08  0.00D+00 EMaxC= 1.00D-01 BMatC= 1.33D-13 BMatP= 1.29D-12
 IDIUse=1 WtCom= 1.00D+00 WtEn= 0.00D+00
 Coeff-Com:  0.827D-06-0.177D-05-0.264D-05 0.185D-05 0.996D-05-0.892D-05
 Coeff-Com: -0.172D-03-0.329D-03 0.341D-03 0.205D-02 0.443D-02-0.104D-01
 Coeff-Com: -0.468D-01-0.328D-01 0.238D+00 0.846D+00
 Coeff:      0.827D-06-0.177D-05-0.264D-05 0.185D-05 0.996D-05-0.892D-05
 Coeff:     -0.172D-03-0.329D-03 0.341D-03 0.205D-02 0.443D-02-0.104D-01
 Coeff:     -0.468D-01-0.328D-01 0.238D+00 0.846D+00
 Gap=     0.237 Goal=   None    Shift=    0.000
 RMSDP=3.67D-09 MaxDP=1.18D-07 DE= 1.36D-12 OVMax= 5.01D-07

 Error on total polarization charges =  0.00874
 SCF Done:  E(RwB97XD) =  -1028.47082452     A.U. after   16 cycles
            NFock= 16  Conv=0.37D-08     -V/T= 2.0033
 KE= 1.025043759206D+03 PE=-4.619958971432D+03 EE= 1.462470492498D+03
 Leave Link  502 at Wed Oct 28 00:08:56 2020, MaxMem=  7784628224 cpu:             968.4 elap:             112.8
 (Enter /gpfs/loomis/apps/avx/software/Gaussian/16-C.01_AVX/g16/l601.exe)
 Copying SCF densities to generalized density rwf, IOpCl= 0 IROHF=0.

 **********************************************************************

            Population analysis using the SCF Density.

 **********************************************************************

 Alpha  occ. eigenvalues --  -89.10703 -19.20347 -14.50781 -10.41862 -10.38112
 Alpha  occ. eigenvalues --  -10.36527 -10.35417 -10.33578 -10.33288 -10.32787
 Alpha  occ. eigenvalues --  -10.32600 -10.31400 -10.30698 -10.30416 -10.29221
 Alpha  occ. eigenvalues --  -10.28326  -8.12769  -6.07639  -6.07272  -6.06778
 Alpha  occ. eigenvalues --   -1.16787  -1.09398  -1.00263  -0.96824  -0.93674
 Alpha  occ. eigenvalues --   -0.89350  -0.87764  -0.83782  -0.81468  -0.79711
 Alpha  occ. eigenvalues --   -0.75603  -0.72374  -0.69699  -0.67829  -0.65855
 Alpha  occ. eigenvalues --   -0.60919  -0.59771  -0.57272  -0.56419  -0.56288
 Alpha  occ. eigenvalues --   -0.55149  -0.53730  -0.53146  -0.50424  -0.49498
 Alpha  occ. eigenvalues --   -0.48847  -0.48578  -0.47058  -0.45629  -0.44988
 Alpha  occ. eigenvalues --   -0.44001  -0.43125  -0.42745  -0.40064  -0.36833
 Alpha  occ. eigenvalues --   -0.34003  -0.31669  -0.31042  -0.25644
 Alpha virt. eigenvalues --   -0.01984   0.03417   0.05180   0.06135   0.09576
 Alpha virt. eigenvalues --    0.10709   0.14069   0.14772   0.16638   0.17336
 Alpha virt. eigenvalues --    0.18826   0.19969   0.20968   0.21326   0.23187
 Alpha virt. eigenvalues --    0.23537   0.24418   0.25914   0.27920   0.30040
 Alpha virt. eigenvalues --    0.30613   0.34185   0.35488   0.35673   0.36702
 Alpha virt. eigenvalues --    0.37810   0.39485   0.39952   0.41659   0.45107
 Alpha virt. eigenvalues --    0.46924   0.48744   0.50713   0.51294   0.51636
 Alpha virt. eigenvalues --    0.52612   0.52829   0.53019   0.53990   0.55453
 Alpha virt. eigenvalues --    0.56182   0.56495   0.56544   0.57269   0.57650
 Alpha virt. eigenvalues --    0.57947   0.58947   0.59390   0.59709   0.60879
 Alpha virt. eigenvalues --    0.61418   0.61604   0.62855   0.62962   0.63534
 Alpha virt. eigenvalues --    0.64672   0.66931   0.66995   0.68689   0.70168
 Alpha virt. eigenvalues --    0.70329   0.70717   0.71951   0.72451   0.73028
 Alpha virt. eigenvalues --    0.74345   0.75461   0.75811   0.77371   0.78478
 Alpha virt. eigenvalues --    0.78758   0.79943   0.81010   0.81737   0.83775
 Alpha virt. eigenvalues --    0.86076   0.89420   0.91157   0.91917   0.93336
 Alpha virt. eigenvalues --    0.94515   0.94659   0.96404   0.97455   0.98518
 Alpha virt. eigenvalues --    0.99506   1.00601   1.00681   1.01034   1.01194
 Alpha virt. eigenvalues --    1.02742   1.05244   1.06202   1.06232   1.07239
 Alpha virt. eigenvalues --    1.09251   1.09671   1.10087   1.10953   1.11317
 Alpha virt. eigenvalues --    1.12813   1.13540   1.13753   1.14261   1.15619
 Alpha virt. eigenvalues --    1.17426   1.19115   1.20085   1.22641   1.24247
 Alpha virt. eigenvalues --    1.26468   1.27531   1.31349   1.33779   1.34322
 Alpha virt. eigenvalues --    1.34747   1.36612   1.38324   1.41760   1.45393
 Alpha virt. eigenvalues --    1.49334   1.49593   1.53157   1.54641   1.55401
 Alpha virt. eigenvalues --    1.55864   1.57116   1.57390   1.57996   1.59863
 Alpha virt. eigenvalues --    1.60546   1.61638   1.63212   1.65363   1.68056
 Alpha virt. eigenvalues --    1.68633   1.70062   1.71008   1.71820   1.71889
 Alpha virt. eigenvalues --    1.72893   1.73681   1.73782   1.75039   1.76483
 Alpha virt. eigenvalues --    1.77882   1.79294   1.80487   1.81900   1.82206
 Alpha virt. eigenvalues --    1.84394   1.84800   1.85068   1.85370   1.86254
 Alpha virt. eigenvalues --    1.87524   1.90473   1.91463   1.92060   1.92358
 Alpha virt. eigenvalues --    1.94640   1.95628   1.95982   1.96640   1.98715
 Alpha virt. eigenvalues --    2.00800   2.00983   2.03094   2.05289   2.06573
 Alpha virt. eigenvalues --    2.07375   2.08487   2.09757   2.12449   2.15398
 Alpha virt. eigenvalues --    2.17619   2.22959   2.24487   2.24738   2.26990
 Alpha virt. eigenvalues --    2.27943   2.30198   2.35543   2.36876   2.38639
 Alpha virt. eigenvalues --    2.41394   2.42973   2.46287   2.48568   2.50081
 Alpha virt. eigenvalues --    2.51746   2.55365   2.61712   2.67797   2.68574
 Alpha virt. eigenvalues --    2.73189   2.73434   2.75461   2.78974   2.81421
 Alpha virt. eigenvalues --    2.81827   2.82278   2.82887   2.89291   2.94620
 Alpha virt. eigenvalues --    2.95982   3.11204   3.18858   3.34877   3.50891
 Alpha virt. eigenvalues --    3.53699   3.60522   3.69897   5.31000
          Condensed to atoms (all electrons):
               1          2          3          4          5          6
     1  C    4.748253   0.478199   0.016492  -0.055501  -0.010271   0.501486
     2  C    0.478199   5.392936   0.258070  -0.065048  -0.079573   0.000858
     3  C    0.016492   0.258070   4.932464   0.513038  -0.000722  -0.071427
     4  C   -0.055501  -0.065048   0.513038   4.820571   0.508219  -0.011101
     5  C   -0.010271  -0.079573  -0.000722   0.508219   4.739091   0.501482
     6  C    0.501486   0.000858  -0.071427  -0.011101   0.501482   4.734758
     7  H    0.404677  -0.039650   0.009509  -0.000654   0.008091  -0.039259
     8  H   -0.000566   0.010521  -0.025898   0.395329  -0.041052   0.007331
     9  H    0.008728  -0.000407   0.008200  -0.037933   0.405537  -0.043672
    10  H   -0.042975   0.009441  -0.000526   0.008471  -0.041947   0.408022
    11  N    0.003638  -0.043958   0.421671  -0.044662   0.002767   0.000296
    12  S   -0.071225   0.337617  -0.142706   0.003178  -0.000007   0.004862
    13  C   -0.000272  -0.001068   0.015406   0.000072   0.000018  -0.000001
    14  C   -0.000010   0.000052   0.000447   0.000009  -0.000000   0.000000
    15  C    0.000005  -0.000263   0.000404   0.000010  -0.000000   0.000000
    16  C    0.000000  -0.000005   0.000002  -0.000000   0.000000   0.000000
    17  H   -0.000009   0.000181   0.000002   0.000001   0.000000   0.000000
    18  C    0.000000   0.000011  -0.000042  -0.000001  -0.000000  -0.000000
    19  C   -0.000000  -0.000000   0.000003   0.000000  -0.000000   0.000000
    20  H   -0.000000  -0.000000  -0.000000   0.000000   0.000000  -0.000000
    21  H   -0.000000   0.000000  -0.000002  -0.000000  -0.000000   0.000000
    22  H    0.000000  -0.000000  -0.000000  -0.000000   0.000000  -0.000000
    23  C    0.003590  -0.059130  -0.086095   0.005868   0.000547  -0.000517
    24  O    0.000001  -0.000167  -0.001044   0.000090   0.000001  -0.000000
    25  H    0.000236   0.030792  -0.032986  -0.031772  -0.001109   0.000024
               7          8          9         10         11         12
     1  C    0.404677  -0.000566   0.008728  -0.042975   0.003638  -0.071225
     2  C   -0.039650   0.010521  -0.000407   0.009441  -0.043958   0.337617
     3  C    0.009509  -0.025898   0.008200  -0.000526   0.421671  -0.142706
     4  C   -0.000654   0.395329  -0.037933   0.008471  -0.044662   0.003178
     5  C    0.008091  -0.041052   0.405537  -0.041947   0.002767  -0.000007
     6  C   -0.039259   0.007331  -0.043672   0.408022   0.000296   0.004862
     7  H    0.647613   0.000027  -0.000148  -0.011137  -0.000098  -0.007904
     8  H    0.000027   0.636252  -0.011846  -0.000107  -0.006265  -0.000252
     9  H   -0.000148  -0.011846   0.654115  -0.012101  -0.000083   0.000020
    10  H   -0.011137  -0.000107  -0.012101   0.654308   0.000006  -0.000144
    11  N   -0.000098  -0.006265  -0.000083   0.000006   5.618438  -0.043032
    12  S   -0.007904  -0.000252   0.000020  -0.000144  -0.043032  15.466098
    13  C    0.000002   0.000048  -0.000000  -0.000000  -0.010701  -0.078865
    14  C    0.000001   0.000001   0.000000  -0.000000   0.004147  -0.009095
    15  C   -0.000000  -0.000014   0.000000   0.000000  -0.009933   0.004715
    16  C    0.000000  -0.000000  -0.000000  -0.000000  -0.000075   0.000276
    17  H    0.000001   0.000000   0.000000  -0.000000   0.000258   0.007673
    18  C    0.000000  -0.000000   0.000000  -0.000000  -0.000589  -0.000137
    19  C   -0.000000   0.000000  -0.000000   0.000000   0.000011   0.000013
    20  H    0.000000  -0.000000   0.000000   0.000000   0.000001   0.000006
    21  H   -0.000000   0.000000  -0.000000   0.000000  -0.000002   0.000003
    22  H    0.000000  -0.000000  -0.000000  -0.000000  -0.000000  -0.000000
    23  C    0.000285  -0.000618   0.000006   0.000004   0.485273   0.295477
    24  O    0.000000  -0.000127   0.000000  -0.000000  -0.009806   0.000097
    25  H    0.000011   0.000913  -0.000019   0.000000   0.300517   0.014407
              13         14         15         16         17         18
     1  C   -0.000272  -0.000010   0.000005   0.000000  -0.000009   0.000000
     2  C   -0.001068   0.000052  -0.000263  -0.000005   0.000181   0.000011
     3  C    0.015406   0.000447   0.000404   0.000002   0.000002  -0.000042
     4  C    0.000072   0.000009   0.000010  -0.000000   0.000001  -0.000001
     5  C    0.000018  -0.000000  -0.000000   0.000000   0.000000  -0.000000
     6  C   -0.000001   0.000000   0.000000   0.000000   0.000000  -0.000000
     7  H    0.000002   0.000001  -0.000000   0.000000   0.000001   0.000000
     8  H    0.000048   0.000001  -0.000014  -0.000000   0.000000  -0.000000
     9  H   -0.000000   0.000000   0.000000  -0.000000   0.000000   0.000000
    10  H   -0.000000  -0.000000   0.000000  -0.000000  -0.000000  -0.000000
    11  N   -0.010701   0.004147  -0.009933  -0.000075   0.000258  -0.000589
    12  S   -0.078865  -0.009095   0.004715   0.000276   0.007673  -0.000137
    13  C    5.546895   0.416205   0.149608  -0.003637  -0.042564  -0.042726
    14  C    0.416205   4.890589   0.010989   0.536979   0.399641  -0.067266
    15  C    0.149608   0.010989   4.720655  -0.053692   0.005629   0.433165
    16  C   -0.003637   0.536979  -0.053692   4.766597  -0.030406  -0.015754
    17  H   -0.042564   0.399641   0.005629  -0.030406   0.675883  -0.001035
    18  C   -0.042726  -0.067266   0.433165  -0.015754  -0.001035   4.968695
    19  C   -0.053998  -0.017166   0.001506   0.473396   0.008262   0.486140
    20  H    0.009190  -0.036895  -0.000144   0.399849  -0.011721   0.008369
    21  H    0.016222  -0.000564  -0.025649   0.007697   0.000057   0.370720
    22  H   -0.001883   0.009948   0.008312  -0.046570  -0.000209  -0.039470
    23  C    0.340772  -0.101123  -0.067578   0.006125  -0.021833   0.012943
    24  O   -0.111628   0.006603   0.715559  -0.000246  -0.000078  -0.071279
    25  H   -0.070580  -0.001047  -0.003597   0.000078  -0.000122   0.003434
              19         20         21         22         23         24
     1  C   -0.000000  -0.000000  -0.000000   0.000000   0.003590   0.000001
     2  C   -0.000000  -0.000000   0.000000  -0.000000  -0.059130  -0.000167
     3  C    0.000003  -0.000000  -0.000002  -0.000000  -0.086095  -0.001044
     4  C    0.000000   0.000000  -0.000000  -0.000000   0.005868   0.000090
     5  C   -0.000000   0.000000  -0.000000   0.000000   0.000547   0.000001
     6  C    0.000000  -0.000000   0.000000  -0.000000  -0.000517  -0.000000
     7  H   -0.000000   0.000000  -0.000000   0.000000   0.000285   0.000000
     8  H    0.000000  -0.000000   0.000000  -0.000000  -0.000618  -0.000127
     9  H   -0.000000   0.000000  -0.000000  -0.000000   0.000006   0.000000
    10  H    0.000000   0.000000   0.000000  -0.000000   0.000004  -0.000000
    11  N    0.000011   0.000001  -0.000002  -0.000000   0.485273  -0.009806
    12  S    0.000013   0.000006   0.000003  -0.000000   0.295477   0.000097
    13  C   -0.053998   0.009190   0.016222  -0.001883   0.340772  -0.111628
    14  C   -0.017166  -0.036895  -0.000564   0.009948  -0.101123   0.006603
    15  C    0.001506  -0.000144  -0.025649   0.008312  -0.067578   0.715559
    16  C    0.473396   0.399849   0.007697  -0.046570   0.006125  -0.000246
    17  H    0.008262  -0.011721   0.000057  -0.000209  -0.021833  -0.000078
    18  C    0.486140   0.008369   0.370720  -0.039470   0.012943  -0.071279
    19  C    4.753509  -0.046919  -0.047066   0.402701   0.000090   0.004778
    20  H   -0.046919   0.690139  -0.000162  -0.012720  -0.000408   0.000000
    21  H   -0.047066  -0.000162   0.686337  -0.012973  -0.000521   0.005470
    22  H    0.402701  -0.012720  -0.012973   0.678998   0.000009  -0.000073
    23  C    0.000090  -0.000408  -0.000521   0.000009   5.154844  -0.016436
    24  O    0.004778   0.000000   0.005470  -0.000073  -0.016436   7.793969
    25  H   -0.000291  -0.000000  -0.000006   0.000003   0.028052   0.061157
              25
     1  C    0.000236
     2  C    0.030792
     3  C   -0.032986
     4  C   -0.031772
     5  C   -0.001109
     6  C    0.000024
     7  H    0.000011
     8  H    0.000913
     9  H   -0.000019
    10  H    0.000000
    11  N    0.300517
    12  S    0.014407
    13  C   -0.070580
    14  C   -0.001047
    15  C   -0.003597
    16  C    0.000078
    17  H   -0.000122
    18  C    0.003434
    19  C   -0.000291
    20  H   -0.000000
    21  H   -0.000006
    22  H    0.000003
    23  C    0.028052
    24  O    0.061157
    25  H    0.965998
 Mulliken charges:
               1
     1  C    0.015522
     2  C   -0.229410
     3  C    0.185740
     4  C   -0.008185
     5  C    0.008929
     6  C    0.006861
     7  H    0.028634
     8  H    0.036324
     9  H    0.029603
    10  H    0.028685
    11  N    0.332181
    12  S    0.218922
    13  C   -0.076515
    14  C   -0.042445
    15  C    0.110314
    16  C   -0.040614
    17  H    0.010388
    18  C   -0.045178
    19  C    0.035030
    20  H    0.001415
    21  H    0.000438
    22  H    0.013925
    23  C    0.020375
    24  O   -0.376842
    25  H   -0.264095
 Sum of Mulliken charges =  -0.00000
 Mulliken charges with hydrogens summed into heavy atoms:
               1
     1  C    0.044155
     2  C   -0.229410
     3  C    0.185740
     4  C    0.028139
     5  C    0.038532
     6  C    0.035546
    11  N    0.068086
    12  S    0.218922
    13  C   -0.076515
    14  C   -0.032057
    15  C    0.110314
    16  C   -0.039199
    18  C   -0.044741
    19  C    0.048955
    23  C    0.020375
    24  O   -0.376842
 Electronic spatial extent (au):  <R**2>=           4324.5006
 Charge=             -0.0000 electrons
 Dipole moment (field-independent basis, Debye):
    X=              1.8420    Y=             -6.2338    Z=             -0.0001  Tot=              6.5003
 Quadrupole moment (field-independent basis, Debye-Ang):
   XX=            -82.0073   YY=            -95.1744   ZZ=           -103.7063
   XY=             -6.6934   XZ=             -0.0001   YZ=             -0.0001
 Traceless Quadrupole moment (field-independent basis, Debye-Ang):
   XX=             11.6221   YY=             -1.5451   ZZ=            -10.0770
   XY=             -6.6934   XZ=             -0.0001   YZ=             -0.0001
 Octapole moment (field-independent basis, Debye-Ang**2):
  XXX=             40.0093  YYY=            -64.1648  ZZZ=             -0.0000  XYY=              3.9730
  XXY=            -11.1022  XXZ=             -0.0001  XZZ=              2.9698  YZZ=              2.4381
  YYZ=             -0.0003  XYZ=             -0.0005
 Hexadecapole moment (field-independent basis, Debye-Ang**3):
 XXXX=          -2598.6736 YYYY=          -2653.0867 ZZZZ=           -112.5457 XXXY=            816.2343
 XXXZ=              0.0099 YYYX=            780.3471 YYYZ=             -0.0150 ZZZX=              0.0138
 ZZZY=             -0.0175 XXYY=           -845.8191 XXZZ=           -572.2973 YYZZ=           -543.4991
 XXYZ=             -0.0040 YYXZ=              0.0020 ZZXY=            360.0610
 N-N= 1.103973895207D+03 E-N=-4.619958971997D+03  KE= 1.025043759206D+03
 No NMR shielding tensors so no spin-rotation constants.
 Leave Link  601 at Wed Oct 28 00:08:56 2020, MaxMem=  7784628224 cpu:               3.6 elap:               0.4
 (Enter /gpfs/loomis/apps/avx/software/Gaussian/16-C.01_AVX/g16/l701.exe)
 ... and contract with generalized density number  0.
 Compute integral first derivatives.
 R6Disp: Adding Grimme-D2 dispersion energy 1st derivatives to the gradient.
 D1PCM: PCM CHGder 1st derivatives, ID1Alg=3 FixD1E=F DoIter=F DoCFld=F I1PDM=0.
 GePol: Maximum number of non-zero 1st derivatives   =     260
 Leave Link  701 at Wed Oct 28 00:08:59 2020, MaxMem=  7784628224 cpu:              24.2 elap:               2.7
 (Enter /gpfs/loomis/apps/avx/software/Gaussian/16-C.01_AVX/g16/l702.exe)
 L702 exits ... SP integral derivatives will be done elsewhere.
 Leave Link  702 at Wed Oct 28 00:08:59 2020, MaxMem=  7784628224 cpu:               0.3 elap:               0.1
 (Enter /gpfs/loomis/apps/avx/software/Gaussian/16-C.01_AVX/g16/l703.exe)
 Integral derivatives from FoFJK, PRISM(SPDF).
 Compute integral first derivatives, UseDBF=F ICtDFT=           0.
 Calling FoFJK, ICntrl=      2127 FMM=F ISym2X=0 I1Cent= 0 IOpClX= 0 NMat=1 NMatS=1 NMatT=0.
 FoFJK:  IHMeth= 1 ICntrl=    2127 DoSepK=T KAlg= 0 I1Cent=           0 FoldK=F
 IRaf=         1 NMat=       1 IRICut=       1 DoRegI=T DoRafI=F ISym2E= 0 IDoP0=0 IntGTp=1.
 FoFCou: FMM=F IPFlag=           0 FMFlag=      100000 FMFlg1=         800
         NFxFlg=           0 DoJE=F BraDBF=F KetDBF=F FulRan=T
         wScrn=  0.000000 ICntrl=      2527 IOpCl=  0 I1Cent=           0 NGrid=           0
         NMat0=    1 NMatS0=      1 NMatT0=    0 NMatD0=    1 NMtDS0=    0 NMtDT0=    0
 Symmetry not used in FoFCou.
 Leave Link  703 at Wed Oct 28 00:09:17 2020, MaxMem=  7784628224 cpu:             139.7 elap:              17.5
 (Enter /gpfs/loomis/apps/avx/software/Gaussian/16-C.01_AVX/g16/l716.exe)
 Dipole        = 7.24703998D-01-2.45256550D+00-3.74081055D-05
 -------------------------------------------------------------------
 Center     Atomic                   Forces (Hartrees/Bohr)
 Number     Number              X              Y              Z
 -------------------------------------------------------------------
      1        6           0.000229329    0.004438636   -0.000000040
      2        6           0.009846303   -0.001016816   -0.000000234
      3        6          -0.008726807   -0.008461519   -0.000000458
      4        6           0.003722755    0.001731856    0.000000169
      5        6           0.000848763    0.004441199    0.000000052
      6        6          -0.001327996    0.002113750   -0.000000082
      7        1           0.001395845    0.001626128   -0.000000051
      8        1          -0.001035905   -0.001617260    0.000000022
      9        1          -0.000889647    0.000261499   -0.000000003
     10        1          -0.000363287    0.001044871   -0.000000008
     11        7          -0.407110294   -1.380316587   -0.000049970
     12       16           0.006509426    0.002909000   -0.000000421
     13        6           0.040046693    0.002972732   -0.000000720
     14        6          -0.059152772    0.028522112    0.000000067
     15        6          -0.001206216   -0.013810734    0.000000051
     16        6           0.010798138   -0.052327131   -0.000000633
     17        1          -0.000814956    0.000744614    0.000000016
     18        6          -0.022700542   -0.000007987    0.000000433
     19        6           0.036940569    0.017114620    0.000000247
     20        1           0.001334771    0.000122664    0.000000020
     21        1          -0.001308996   -0.000631116   -0.000000297
     22        1           0.000295931    0.000834683    0.000000044
     23        6          -0.008952275    0.036631867    0.000001593
     24        8           0.001814840    0.015433251   -0.000000191
     25        1           0.399806330    1.337245667    0.000050392
 -------------------------------------------------------------------
 Cartesian Forces:  Max     1.380316587 RMS     0.231869742
 Leave Link  716 at Wed Oct 28 00:09:17 2020, MaxMem=  7784628224 cpu:               0.5 elap:               0.1
 (Enter /gpfs/loomis/apps/avx/software/Gaussian/16-C.01_AVX/g16/l103.exe)

 GradGradGradGradGradGradGradGradGradGradGradGradGradGradGradGradGradGrad
 Berny optimization.
 FormGI is forming the generalized inverse of G from B-inverse, IUseBI=4.
 Internal  Forces:  Max     1.005445693 RMS     0.101693872
 Search for a local minimum.
 Step number   1 out of a maximum of  146
 All quantities printed in internal units (Hartrees-Bohrs-Radians)
 RMS Force = .10245D+00 SwitMx=.10000D-02 MixMth= 1
 Mixed Optimization -- RFO/linear search
 Second derivative matrix not updated -- first step.
 ITU=  0
     Eigenvalues ---    0.01281   0.01463   0.01582   0.01731   0.01738
     Eigenvalues ---    0.01757   0.01832   0.01847   0.01890   0.01900
     Eigenvalues ---    0.01926   0.01982   0.02003   0.02043   0.02100
     Eigenvalues ---    0.02120   0.02130   0.02137   0.02146   0.02157
     Eigenvalues ---    0.02158   0.02176   0.16000   0.16000   0.16000
     Eigenvalues ---    0.16000   0.16000   0.16000   0.16000   0.16003
     Eigenvalues ---    0.17281   0.22006   0.22010   0.22537   0.22591
     Eigenvalues ---    0.24397   0.24481   0.24604   0.25000   0.25000
     Eigenvalues ---    0.29550   0.30295   0.33070   0.34360   0.34430
     Eigenvalues ---    0.34456   0.34489   0.34496   0.34570   0.34608
     Eigenvalues ---    0.34629   0.35939   0.38101   0.40255   0.41337
     Eigenvalues ---    0.41751   0.43290   0.43574   0.43941   0.45817
     Eigenvalues ---    0.45881   0.46214   0.46836   0.48767   0.50332
     Eigenvalues ---    0.80532   2.217301000.000001000.000001000.00000
     Eigenvalues --- 1000.000001000.000001000.000001000.000001000.00000
     Eigenvalues --- 1000.000001000.000001000.000001000.000001000.00000
     Eigenvalues --- 1000.000001000.000001000.000001000.000001000.00000
     Eigenvalues --- 1000.000001000.000001000.000001000.000001000.00000
     Eigenvalues --- 1000.000001000.000001000.000001000.000001000.00000
     Eigenvalues --- 1000.000001000.000001000.000001000.000001000.00000
     Eigenvalues --- 1000.000001000.000001000.000001000.000001000.00000
     Eigenvalues --- 1000.000001000.000001000.000001000.000001000.00000
     Eigenvalues --- 1000.000001000.000001000.000001000.000001000.00000
     Eigenvalues --- 1000.000001000.000001000.000001000.000001000.00000
     Eigenvalues --- 1000.000001000.000001000.000001000.000001000.00000
     Eigenvalues --- 1000.000001000.000001000.000001000.000001000.00000
     Eigenvalues --- 1000.000001000.000001000.000001000.000001000.00000
     Eigenvalues --- 1000.00000
 RFO step:  Lambda=-5.23294841D-01 EMin= 1.28129358D-02
 Linear search not attempted -- first point.
 Maximum step size (   0.300) exceeded in Quadratic search.
    -- Step size scaled by   0.667
 Iteration  1 RMS(Cart)=  0.02392196 RMS(Int)=  0.00357264
 Iteration  2 RMS(Cart)=  0.00367068 RMS(Int)=  0.00077010
 Iteration  3 RMS(Cart)=  0.00002621 RMS(Int)=  0.00094202
 Iteration  4 RMS(Cart)=  0.00000008 RMS(Int)=  0.00094255
 Iteration  1 RMS(Cart)=  0.00001775 RMS(Int)=  0.00001794
 Iteration  2 RMS(Cart)=  0.00000034 RMS(Int)=  0.00000981
 ITry= 1 IFail=0 DXMaxC= 1.45D-01 DCOld= 1.00D+10 DXMaxT= 3.00D-01 DXLimC= 3.00D+00 Rises=F
 Variable       Old X    -DE/DX   Delta X   Delta X   Delta X     New X
                                 (Linear)    (Quad)   (Total)
    R1        2.63858  -0.05218   0.00000  -0.01356  -0.01323   2.62535
    R2        2.63344  -0.01259   0.00000  -0.00174  -0.00167   2.63177
    R3        2.06609  -0.00636   0.00000  -0.00264  -0.00261   2.06348
    R4        2.68013  -0.17631   0.00000  -0.04813  -0.04700   2.63313
    R5        3.31147   0.06403   0.00000   0.01936   0.01876   3.33023
    R6        2.63077   0.01069   0.00000   0.00166   0.00159   2.63236
    R7        2.64955  -0.03986   0.00000  -0.01525  -0.01500   2.63455
    R8        2.64562   0.02197   0.00000   0.00108   0.00091   2.64653
    R9        2.06568  -0.00074   0.00000  -0.00119  -0.00120   2.06447
   R10        2.64238  -0.04285   0.00000  -0.00853  -0.00818   2.63420
   R11        2.06379  -0.00163   0.00000  -0.00086  -0.00086   2.06294
   R12        2.06316  -0.00170   0.00000  -0.00099  -0.00099   2.06217
   R13        2.57222   0.06762   0.00000   0.00716   0.00659   2.57881
   R14        1.19078   1.00545   0.00000   0.24610   0.24908   1.43986
   R15        3.26782  -0.18932   0.00000  -0.04063  -0.03905   3.22877
   R16        2.59918  -0.03408   0.00000   0.00948   0.01005   2.60923
   R17        2.80165  -0.09862   0.00000  -0.02115  -0.02031   2.78134
   R18        2.69569   0.08740   0.00000   0.01658   0.01585   2.71154
   R19        2.69718   0.04943   0.00000  -0.01066  -0.01139   2.68579
   R20        2.06727  -0.00168   0.00000  -0.00064  -0.00063   2.06664
   R21        2.71664   0.11782   0.00000   0.02617   0.02523   2.74187
   R22        2.35775  -0.15042   0.00000  -0.02079  -0.01960   2.33815
   R23        2.62945  -0.03665   0.00000   0.00137   0.00180   2.63124
   R24        2.06500   0.00079   0.00000  -0.00053  -0.00055   2.06445
   R25        2.65059   0.04282   0.00000  -0.00290  -0.00346   2.64713
   R26        2.06513  -0.00213   0.00000  -0.00103  -0.00102   2.06411
   R27        2.06280   0.00414   0.00000   0.00119   0.00116   2.06395
    A1        2.05976   0.03223   0.00000   0.00769   0.00736   2.06712
    A2        2.10390  -0.02476   0.00000  -0.00621  -0.00597   2.09793
    A3        2.11952  -0.00746   0.00000  -0.00149  -0.00139   2.11814
    A4        2.13841  -0.01168   0.00000  -0.00671  -0.00656   2.13186
    A5        2.19203  -0.02913   0.00000   0.00208   0.00252   2.19455
    A6        1.95275   0.04081   0.00000   0.00463   0.00403   1.95678
    A7        2.07086   0.04269   0.00000   0.01657   0.01629   2.08715
    A8        1.95263  -0.13465   0.00000  -0.03601  -0.03511   1.91751
    A9        2.25970   0.09195   0.00000   0.01944   0.01882   2.27852
   A10        2.07383  -0.02377   0.00000  -0.00748  -0.00731   2.06652
   A11        2.10338   0.01806   0.00000   0.00556   0.00543   2.10881
   A12        2.10598   0.00570   0.00000   0.00192   0.00188   2.10786
   A13        2.13034  -0.02388   0.00000  -0.00781  -0.00762   2.12271
   A14        2.06879   0.01393   0.00000   0.00429   0.00418   2.07297
   A15        2.08406   0.00996   0.00000   0.00352   0.00344   2.08750
   A16        2.09317  -0.01559   0.00000  -0.00226  -0.00216   2.09101
   A17        2.09319   0.00638   0.00000   0.00088   0.00083   2.09402
   A18        2.09682   0.00922   0.00000   0.00139   0.00133   2.09816
   A19        1.95641   0.20169   0.00000   0.06690   0.06563   2.02203
   A20        2.24246  -0.25714   0.00000  -0.08400  -0.08180   2.16066
   A21        2.08432   0.05545   0.00000   0.01710   0.01617   2.10049
   A22        1.55559   0.06601   0.00000   0.02352   0.02299   1.57859
   A23        2.12122   0.02368   0.00000   0.00208   0.00186   2.12308
   A24        2.13110   0.02958   0.00000   0.00395   0.00361   2.13470
   A25        2.03087  -0.05327   0.00000  -0.00603  -0.00547   2.02540
   A26        2.08937   0.03190   0.00000   0.01102   0.01083   2.10020
   A27        2.11734  -0.01922   0.00000  -0.00572  -0.00559   2.11175
   A28        2.07648  -0.01268   0.00000  -0.00530  -0.00524   2.07124
   A29        2.02348  -0.03343   0.00000  -0.01134  -0.01111   2.01237
   A30        2.08303  -0.13570   0.00000  -0.02413  -0.02287   2.06017
   A31        2.17667   0.16913   0.00000   0.03548   0.03397   2.21065
   A32        2.11004  -0.01409   0.00000  -0.00705  -0.00699   2.10305
   A33        2.07248   0.00716   0.00000   0.00349   0.00345   2.07593
   A34        2.10067   0.00693   0.00000   0.00357   0.00353   2.10420
   A35        2.12158   0.01945   0.00000   0.00731   0.00716   2.12874
   A36        2.03400  -0.00366   0.00000  -0.00117  -0.00114   2.03286
   A37        2.12760  -0.01579   0.00000  -0.00614  -0.00602   2.12158
   A38        2.10069  -0.02752   0.00000  -0.00201  -0.00176   2.09893
   A39        2.08948   0.00619   0.00000  -0.00063  -0.00069   2.08880
   A40        2.09301   0.02133   0.00000   0.00264   0.00244   2.09546
   A41        2.00740  -0.17386   0.00000  -0.05904  -0.05754   1.94986
   A42        2.11746   0.11475   0.00000   0.03881   0.03786   2.15533
   A43        2.15832   0.05910   0.00000   0.02023   0.01968   2.17800
    D1       -0.00000   0.00000   0.00000   0.00000   0.00000  -0.00000
    D2       -3.14159  -0.00000   0.00000  -0.00000  -0.00000   3.14159
    D3        3.14159   0.00000   0.00000   0.00000   0.00000   3.14159
    D4       -0.00000  -0.00000   0.00000  -0.00000  -0.00000  -0.00000
    D5       -0.00000  -0.00000   0.00000  -0.00000  -0.00000  -0.00000
    D6        3.14159  -0.00000   0.00000  -0.00000  -0.00000   3.14159
    D7        3.14159  -0.00000   0.00000  -0.00000  -0.00000   3.14159
    D8        0.00000  -0.00000   0.00000  -0.00000  -0.00000   0.00000
    D9        0.00000   0.00000   0.00000   0.00000   0.00000   0.00000
   D10       -3.14159  -0.00000   0.00000  -0.00000  -0.00000  -3.14159
   D11       -3.14159   0.00000   0.00000   0.00000   0.00000  -3.14159
   D12       -0.00000   0.00000   0.00000   0.00000   0.00000   0.00000
   D13        3.14159  -0.00000   0.00000  -0.00000  -0.00000   3.14159
   D14       -0.00000  -0.00000   0.00000  -0.00000  -0.00000  -0.00000
   D15       -0.00000  -0.00000   0.00000  -0.00000  -0.00000  -0.00000
   D16        3.14159  -0.00000   0.00000  -0.00000  -0.00000   3.14159
   D17       -3.14159   0.00000   0.00000   0.00000   0.00000  -3.14159
   D18        0.00000   0.00000   0.00000   0.00000   0.00000   0.00000
   D19        0.00001   0.00000   0.00000   0.00000   0.00000   0.00001
   D20        3.14154   0.00001   0.00000   0.00000   0.00000   3.14155
   D21       -3.14159   0.00000   0.00000   0.00000   0.00000  -3.14159
   D22       -0.00005   0.00001   0.00000   0.00000   0.00000  -0.00005
   D23        0.00000   0.00000   0.00000   0.00000   0.00000   0.00000
   D24       -3.14159   0.00000   0.00000   0.00000   0.00000  -3.14159
   D25        3.14159   0.00000   0.00000   0.00000   0.00000   3.14159
   D26        0.00000   0.00000   0.00000  -0.00000  -0.00000   0.00000
   D27        0.00000   0.00000   0.00000   0.00000   0.00000   0.00000
   D28       -3.14159  -0.00000   0.00000  -0.00000  -0.00000  -3.14159
[...]
 11981,-0.00007954,-0.00000001,0.00004509,0.00008218,0.,0.00015986,-0.0
 0011282,0.,0.00013215,-0.00006761,0.00000001,0.01391617,0.00253786,0.0
 0000009,-0.00388013,-0.00537608,-0.00000023,0.05852372,0.00699188,0.00
 000068,0.11026630,-0.26865717,-0.00000876,0.02808280,-0.04001031,-0.00
 000208,-0.01442378,0.66653930,-0.00000010,0.00000013,0.00005131,0.0000
 0017,-0.00000008,0.00048656,0.00000004,-0.00000002,-0.00054619,-0.0000
 0012,0.00000004,-0.00011313,0.,-0.00000016,0.00004245,0.00000017,0.000
 00003,-0.00001910,0.,0.,0.00000195,0.,0.,0.00000105,0.,0.,0.00001724,0
 .,0.,-0.00002516,0.00000051,0.00000014,-0.00007387,-0.00000013,-0.0000
 0048,-0.00095740,0.00000265,0.00000026,0.00973079,0.00000329,-0.000008
 84,-0.06257255,0.00000129,-0.00000156,-0.00674085,0.00000675,0.0000300
 2,0.12005823,0.00033430,-0.00002989,0.,-0.00072741,0.00044361,0.000000
 12,0.00034769,-0.00025357,0.,0.00005943,0.00005532,-0.00000002,0.00005
 529,0.00011327,0.,-0.00013735,-0.00009397,0.,-0.00001502,-0.00001040,0
 .,0.00004158,0.00000021,0.,0.00000688,0.00000129,0.,0.00003133,-0.0000
 0683,0.,-0.00011002,0.00023733,-0.00000001,-0.00144552,0.00205021,-0.0
 0000043,-0.00433035,-0.02865995,-0.00000160,-0.08300306,-0.08071092,-0
 .00000483,-0.00460936,0.00368868,0.00000009,0.01044509,0.02168897,0.00
 000117,0.08446557,0.00010313,-0.00008829,0.,-0.00020641,0.00080801,0.0
 0000003,0.00038072,-0.00033117,-0.00000002,0.00007258,0.00008752,-0.00
 000002,0.00001708,0.00014009,0.,-0.00017599,-0.00001699,0.,-0.00001102
 ,0.00001218,0.,0.00003322,-0.00000541,0.,-0.00000708,0.00000846,0.,0.0
 0000164,0.00000334,0.,-0.00124364,0.00004042,0.00000005,0.00038216,-0.
 00031543,0.00000026,-0.00001233,-0.00283756,-0.00000040,-0.07743794,-0
 .31135135,-0.00001546,0.00009953,0.00271828,-0.00000016,-0.01135565,-0
 .01678425,-0.00000132,0.08348068,0.33125665,0.00000004,-0.00000001,-0.
 00001049,-0.00000004,0.00000003,-0.00061581,0.00000001,0.,0.00015551,0
 .00000001,0.,0.00007606,0.,0.00000002,-0.00001887,-0.00000002,-0.00000
 002,0.00002898,0.,0.,-0.00001112,0.,0.,-0.00001405,0.,0.,-0.00000395,0
 .,0.,0.00001644,0.00000013,0.00000009,-0.00011608,-0.00000042,0.000000
 47,0.00133704,0.00000036,-0.00000077,0.00299828,-0.00000515,-0.0000157
 2,-0.03727080,0.00000007,-0.00000003,0.00459946,-0.00000038,-0.0000009
 7,0.00603374,0.00000542,0.00001703,0.02384032,-0.00057673,0.00128669,-
 0.00000002,0.00107321,-0.00105766,0.00000005,0.00129729,0.00081584,0.0
 0000005,-0.00106371,0.00017558,0.00000004,-0.00000030,-0.00144766,0.00
 000001,0.00148594,0.00016269,-0.00000002,-0.00007792,-0.00000127,0.,0.
 00012691,0.00003706,0.,0.00007846,-0.00005791,0.,0.00007630,-0.0000202
 0,0.,0.00777805,0.00231043,0.00000009,-0.00150297,-0.00238726,-0.00000
 014,0.04394962,0.00235492,0.00000060,-0.04531825,0.01934830,0.00000078
 ,-0.12608309,0.03028977,0.00000172,0.00014405,-0.07101604,-0.00000379,
 -0.00002802,0.00042801,-0.00000007,0.71040579,0.00080674,-0.00068353,0
 .00000005,-0.00138120,0.00023000,0.00000008,-0.00010183,-0.00042988,0.
 00000003,0.00062610,-0.00013965,-0.00000003,0.00008473,0.00090066,0.,-
 0.00095015,-0.00019746,0.,0.00001240,0.00003558,0.,0.00000355,-0.00002
 402,0.,-0.00003709,0.00003610,0.,-0.00000423,0.00000831,-0.00000001,-0
 .00456872,0.00034920,0.00000002,0.00227804,0.00090563,0.00000013,0.007
 93359,-0.02270133,-0.00000230,0.00911408,-0.00561226,-0.00000029,0.051
 04502,-0.19266454,-0.00000702,-0.03825844,0.00139634,-0.00000067,-0.00
 010869,0.00059341,0.,0.10461795,0.67435868,0.00000008,-0.00000006,-0.0
 0015691,-0.00000018,-0.00000007,-0.00030803,-0.00000014,0.00000012,-0.
 00104755,0.00000010,-0.00000002,0.00004665,0.,0.00000010,0.00003403,-0
 .00000009,-0.00000004,0.00005310,0.,0.,-0.00005635,0.,0.,-0.00003970,0
 .,0.,-0.00000306,0.,0.,0.00004443,-0.00000038,-0.00000054,0.00023230,0
 .00000029,0.00000003,-0.00065048,0.00000085,-0.00000087,0.01048340,0.0
 0000023,-0.00000017,-0.00050270,0.00000268,-0.00000749,-0.07869943,-0.
 00000237,-0.00000101,0.00777129,-0.00000004,0.00000004,0.00009342,0.00
 000852,0.00003427,0.12044999,0.00096398,-0.00144058,0.00000005,-0.0016
 7412,0.00114435,-0.00000001,-0.00054772,-0.00079028,-0.00000005,0.0012
 0359,-0.00024569,-0.00000005,0.00004087,0.00168664,-0.00000001,-0.0017
 7282,-0.00022493,0.00000002,0.00007055,0.00004807,0.,-0.00004131,-0.00
 005384,0.,-0.00009895,0.00007485,0.,-0.00007569,0.00003798,0.,-0.00861
 804,-0.00099511,0.,0.00240589,0.00294777,0.00000014,-0.03199123,0.0051
 7272,-0.00000020,0.04842868,0.00328047,0.00000035,-0.04808450,0.024206
 45,0.00000120,-0.13842718,-0.02343957,-0.00000196,-0.00302352,0.004501
 76,0.00000006,-0.41057177,-0.09626799,-0.00000733,0.76119622,0.0009608
 1,-0.00145162,0.00000003,-0.00142795,0.00137049,-0.00000004,-0.0002848
 1,-0.00162864,-0.00000004,0.00099962,-0.00013311,-0.00000004,0.0000313
 2,0.00159723,0.,-0.00176788,-0.00017300,0.00000002,0.00007714,0.000034
 96,0.,-0.00004508,-0.00004742,0.,-0.00010285,0.00007709,0.,-0.00007575
 ,0.00003901,0.,-0.01095063,-0.00139201,-0.00000013,0.00250178,0.002975
 81,0.00000020,-0.03883638,-0.00151092,-0.00000051,0.04655236,-0.055249
 61,-0.00000324,-0.00413801,0.05120317,0.00000321,-0.08706045,-0.288092
 07,-0.00001415,0.00272933,-0.00190762,-0.00000045,-0.03818947,-0.14929
 042,-0.00000535,-0.02083146,0.67810045,0.00000006,-0.00000009,-0.00000
 550,-0.00000011,0.00000013,0.00017911,0.00000005,-0.00000014,0.0003636
 4,0.00000005,0.,-0.00000510,0.,0.00000009,-0.00002897,-0.00000011,0.,-
 0.00000121,0.,0.,0.00001181,0.,0.,0.00002996,0.,0.,-0.00000404,0.,0.,-
 0.00001248,-0.00000077,0.00000002,0.00004018,0.00000015,0.00000006,-0.
 00025774,-0.00000244,0.00000031,-0.00481323,0.00000297,-0.00000325,0.0
 0701491,-0.00000015,0.00000292,-0.00047906,-0.00000544,-0.00001356,-0.
 06155591,0.00000001,-0.00000047,0.00844202,-0.00000442,-0.00000573,-0.
 05876166,0.00000241,0.00003089,0.14463482,0.00001613,-0.00008504,0.,-0
 .00001839,0.00013516,0.,-0.00003066,-0.00015583,0.00000002,0.00004203,
 0.00003064,0.,-0.00001191,0.00006710,0.,-0.00008627,0.00000826,0.,0.00
 000588,0.00000614,0.,0.00000315,-0.00000426,0.,-0.00000940,0.00000809,
 0.,-0.00000931,0.00000562,0.,-0.00048209,0.00039043,0.,0.00003064,0.00
 008422,0.,-0.00017751,0.00379869,0.00000005,-0.01543773,-0.00850977,-0
 .00000066,0.00058956,0.00013270,0.00000002,-0.33206201,-0.06477099,-0.
 00000689,0.00077396,0.00014140,0.00000007,0.00139581,-0.00140727,-0.00
 000012,-0.00417197,0.00260200,0.00000009,0.34985429,-0.00000307,0.0000
 2594,0.,0.00001779,-0.00006526,0.,0.00006910,0.00009016,0.00000001,-0.
 00001551,-0.00003980,0.,0.00001294,-0.00001717,0.,0.00002468,-0.000003
 49,0.,-0.00000039,-0.00000304,0.,0.00000079,0.00000183,0.,0.00000349,-
 0.00000471,0.,0.00000274,-0.00000129,0.,0.00031623,-0.00035455,0.00000
 004,0.00001086,0.00003441,-0.00000002,0.00225074,-0.00311684,-0.000000
 51,0.02415438,0.00831444,0.00000063,0.00057338,-0.00144670,-0.00000005
 ,-0.06588149,-0.07235450,-0.00000311,-0.00013722,0.00093440,0.00000034
 ,-0.00008025,-0.00523183,-0.00000055,-0.02974959,-0.00158151,-0.000000
 43,0.06888469,0.07283168,0.,0.,0.00000712,0.00000002,-0.00000003,-0.00
 009927,-0.00000003,0.,-0.00038611,0.,0.,-0.00003293,0.,0.,0.00004002,0
 .,0.,-0.00000740,0.,0.,-0.00000209,0.,0.,-0.00001864,0.,0.,0.00001004,
 0.,0.,0.00000613,0.00000012,0.,-0.00060215,-0.00000001,0.00000008,0.00
 027162,0.00000018,-0.00000066,0.00817623,0.00000093,0.00000020,0.00146
 096,0.00000008,-0.00000002,-0.00071066,-0.00000686,-0.00000312,-0.0306
 1211,0.00000007,0.00000034,-0.00555545,-0.00000009,-0.00000055,0.00406
 585,-0.00000167,0.00000001,0.00058844,0.00000743,0.00000352,0.02363081
 ,-0.00008146,0.00001641,0.,0.00011517,0.00009777,0.,-0.00002818,0.0000
 0202,0.,-0.00002554,0.00001120,0.,-0.00000991,-0.00004346,0.,0.0000472
 2,0.00002058,0.,0.00000032,-0.00000424,0.,-0.00000385,0.,0.,0.00000124
 ,-0.00000127,0.,-0.00000425,-0.00000078,0.,0.00039894,-0.00004961,0.,-
 0.00036392,0.00013188,-0.00000002,-0.00259602,0.00267151,0.00000019,-0
 .00151957,0.00033137,0.00000002,0.01001894,0.02172680,0.00000132,-0.00
 487858,-0.00021482,-0.00000008,0.00013003,-0.00008126,0.,-0.07748338,-
 0.07535256,-0.00000470,-0.00375237,-0.03016814,-0.00000181,-0.00037102
 ,-0.00144409,-0.00000009,0.07781718,0.00001797,0.00011541,0.,-0.000066
 10,-0.00021251,0.,0.00001476,0.00015333,0.,-0.00005363,-0.00001009,0.,
 0.00001600,-0.00008431,0.,0.00009899,-0.00001689,0.,-0.00000799,-0.000
 00132,0.,0.00000330,0.00000598,0.,0.00001147,-0.00000759,0.,0.00001453
 ,-0.00000562,0.,0.00041019,0.00005423,0.,0.00022872,-0.00034621,0.,0.0
 0395792,-0.00257472,-0.00000039,0.00109450,0.00044309,0.00000008,-0.01
 340602,-0.01601178,-0.00000120,-0.00113272,0.00221683,-0.00000044,-0.0
 0006397,-0.00009787,0.00000006,-0.07695350,-0.32291536,-0.00001823,0.0
 0212867,-0.00295141,-0.00000033,0.00003221,-0.00025453,-0.00000005,0.0
 8371836,0.33930027,0.,0.00000002,0.00005179,0.00000002,-0.00000003,0.0
 0003482,0.,0.00000001,-0.00001052,-0.00000001,0.,-0.00000363,0.,-0.000
 00002,0.00000340,0.00000002,0.,-0.00000947,0.,0.,0.00000531,0.,0.,0.00
 000094,0.,0.,0.00000272,0.,0.,-0.00000940,0.00000010,0.00000002,-0.000
 07149,0.,0.00000002,0.00012789,0.00000009,-0.00000059,0.00389898,0.000
 00020,0.00000007,-0.00076328,-0.00000075,-0.00000085,0.00433463,-0.000
 00013,-0.00000027,0.00919785,0.00000001,0.00000005,-0.00105410,-0.0000
 0479,-0.00001815,-0.03387446,0.,-0.00000058,0.00321365,0.,-0.00000004,
 0.00054931,0.00000535,0.00001956,0.02396056,0.00005033,-0.00009105,0.,
 -0.00005798,0.00015162,0.,0.00007659,-0.00014798,0.,0.00004793,0.00000
 269,0.,-0.00000020,0.00009087,0.,-0.00010844,-0.00000137,0.,0.00000463
 ,0.00000478,0.,0.00000745,-0.00000478,0.,-0.00000931,0.00000640,0.,-0.
 00000722,0.00000523,0.,-0.00054953,0.00007961,0.,0.00005069,0.00027154
 ,0.,-0.00087309,0.00039855,0.00000001,0.00100482,-0.00223805,-0.000000
 14,-0.00233933,-0.00452746,-0.00000039,0.00885759,-0.00814424,-0.00000
 044,0.00033122,-0.00041080,0.,-0.01534497,0.02444010,0.00000128,-0.192
 80801,0.14065577,0.00000728,0.00058725,0.00041795,0.00000003,0.0009535
 4,-0.00029814,0.00000003,0.20111523,0.00001572,0.00003193,0.,-0.000078
 88,0.00002243,0.00000001,0.00002396,0.00007214,-0.00000002,-0.00000235
 ,-0.00000093,0.,0.00000932,-0.00001621,0.,0.00002306,-0.00001017,0.,-0
 .00000554,-0.00000149,0.,0.00000264,0.00000150,0.,0.00000512,-0.000002
 64,0.,0.00000652,-0.00000347,0.,0.00019285,-0.00006373,0.,-0.00009509,
 -0.00002007,-0.00000003,-0.00071279,0.00061459,0.00000010,-0.00340660,
 -0.00511217,-0.00000060,-0.00246483,-0.00001685,-0.00000069,0.02326386
 ,-0.01454311,-0.00000094,0.00109690,-0.00113458,0.,-0.00752132,0.00828
 396,0.00000003,0.14092799,-0.20717029,-0.00000879,-0.00024260,0.001050
 34,0.00000020,0.00011064,0.00090172,0.00000041,-0.15125158,0.21650239,
 0.,0.,0.00000133,0.,0.00000001,-0.00005319,0.00000001,0.,0.00016877,0.
 ,0.,0.00000501,0.,0.,-0.00000773,0.,0.,-0.00000406,0.,0.,0.00000609,0.
 ,0.,0.00000123,0.,0.,-0.00000057,0.,0.,0.00000186,0.00000004,0.0000000
 8,-0.00000074,-0.00000003,0.00000004,0.00025173,-0.00000013,-0.0000000
 2,-0.00115342,-0.00000021,-0.00000057,0.00442630,-0.00000019,-0.000000
 58,0.01136937,0.00000140,-0.00000106,0.00481660,0.00000009,-0.00000007
 ,-0.00038762,-0.00000033,0.00000022,0.00722423,0.00000710,-0.00000890,
 -0.04213431,0.00000002,0.00000020,-0.00232217,0.00000004,0.00000043,-0
 .00615605,-0.00000778,0.00001011,0.02674774,-0.00912884,-0.00039887,0.
 00000005,0.00937649,0.01479451,-0.00000050,-0.05928383,0.04479961,-0.0
 0000079,0.00731141,-0.00354205,0.00000026,-0.00284137,0.00072383,-0.00
 000008,0.00261275,-0.00242370,0.00000010,0.00000921,-0.00104780,-0.000
 00003,-0.00070057,-0.00002893,0.00000001,0.00054721,-0.00035137,-0.000
 00004,-0.00059405,-0.00017991,0.00000006,-0.34680874,-0.03156885,0.000
 00884,-0.06318418,-0.05537446,0.00000180,-0.16960015,0.07926717,-0.000
 00028,-0.06353893,0.03413035,0.00000140,0.04637434,0.02106855,0.000000
 10,0.00711775,-0.02954062,-0.00000158,0.00161929,0.00192770,0.00000007
 ,-0.01315601,0.00428600,0.00000048,0.01440882,0.01552571,0.00000099,-0
 .00026555,0.00085266,-0.00000006,0.00020067,-0.00154904,-0.00000017,0.
 00092232,-0.00004634,-0.00000003,0.67994329,0.00262530,-0.00364104,0.0
 0000026,0.01777445,-0.01907429,0.00000044,0.01285549,0.01566501,-0.000
 00129,0.00684974,-0.00925916,0.00000022,-0.00060100,0.00664504,-0.0000
 0002,-0.00494226,-0.00345647,0.00000010,0.00026142,-0.00044534,0.00000
 003,-0.00047948,-0.00001812,-0.00000004,0.00005181,-0.00034048,0.,-0.0
 0044023,0.00013762,-0.00000003,-0.03817370,-0.14238113,0.00000519,-0.0
 0643926,-0.17369059,0.00000675,0.07706871,-0.20778465,-0.00000129,0.03
 468106,0.00483331,-0.00000019,0.00166263,-0.04094130,-0.00000029,-0.01
 455143,0.02399537,0.00000101,-0.00270423,-0.00107531,0.00000009,0.0090
 5804,-0.01168416,-0.00000105,-0.01443940,-0.01563256,-0.00000097,-0.00
 108451,0.00074576,0.00000007,0.00154931,-0.00037511,0.00000005,-0.0007
 1063,0.00018499,0.00000004,-0.07987980,0.56051582,0.00000030,0.0000000
 2,-0.00025944,-0.00000104,0.00000027,0.00044397,0.00000030,-0.00000147
 ,-0.00083899,-0.00000019,0.00000046,0.00090352,0.00000004,-0.00000006,
 0.00133759,0.,0.00000008,0.00094697,-0.00000002,0.00000005,-0.00043775
 ,0.00000003,-0.00000002,-0.00049192,-0.00000003,0.00000003,-0.00024611
 ,0.00000003,0.,-0.00004953,0.00000691,0.00000495,-0.04602991,0.0000011
 1,0.00000668,-0.03047923,-0.00000024,0.00000029,-0.05844759,0.00000018
 ,0.00000052,-0.00593147,0.00000005,-0.00000146,0.00474061,-0.00000018,
 -0.00000003,0.00500393,0.00000006,0.00000012,-0.00224334,0.00000018,-0
 .00000046,0.00389858,-0.00000014,-0.00000021,-0.00075564,-0.00000002,-
 0.00000009,0.00173856,0.00000003,-0.00000002,-0.00043164,0.,0.00000004
 ,-0.00072417,-0.00000959,-0.00000889,0.13568182,-0.00128513,0.00301888
 ,-0.00000013,0.00206706,-0.00129440,-0.00000015,0.00575488,0.00140209,
 0.00000022,-0.00268450,0.00053722,0.00000009,0.00008235,-0.00334401,0.
 00000002,0.00332251,0.00057262,-0.00000004,-0.00017881,0.00008531,0.,0
 .00031925,0.00009996,0.,0.00012013,-0.00009610,-0.00000001,0.00015110,
 -0.00000319,0.00000001,0.01522786,0.01521403,0.00000042,-0.00257047,-0
 .00474674,0.,-0.01668175,-0.06816250,-0.00000277,-0.01313200,0.0012483
 8,0.00000030,-0.62046373,-0.10313580,-0.00000680,-0.00003507,-0.020057
 81,-0.00000097,-0.00137896,-0.00070289,-0.00000017,-0.07856623,0.01323
 920,0.00000070,0.01730928,0.02203477,0.00000121,-0.00022366,-0.0002860
 7,-0.00000007,0.00146244,0.00182385,0.00000002,-0.00203602,0.00016812,
 0.,-0.03841025,0.02413624,0.00000052,0.72566885,-0.00026382,0.00000236
 ,0.00000006,0.00035086,-0.00110774,0.00000006,-0.00306896,-0.00186741,
 -0.00000042,-0.00024002,-0.00022879,0.00000004,0.00026762,-0.00005406,
 0.00000002,0.00018440,-0.00003845,0.,0.00001701,-0.00012498,-0.0000000
 2,0.00008328,0.00004895,-0.00000003,0.00007731,-0.00007807,0.,0.000054
 20,-0.00004588,0.,0.01126103,-0.01010283,-0.00000055,-0.00015868,-0.00
 093097,-0.00000008,-0.05868461,-0.01529624,-0.00000174,0.00893419,-0.0
 0954423,-0.00000040,-0.10796824,-0.11467513,-0.00000285,-0.00359589,0.
 00617961,0.00000031,-0.00260622,-0.00073757,-0.00000011,0.03258031,0.0
 2359435,0.00000072,-0.00032928,-0.01060401,-0.00000082,-0.00009104,0.0
 0051791,0.00000003,-0.00301039,0.00274147,0.00000035,0.00136685,0.0004
 4016,0.00000009,-0.00283374,0.00432951,-0.00000026,0.13047171,0.137668
 75,-0.00000003,-0.00000004,-0.00020517,0.00000012,-0.00000004,-0.00010
 960,-0.00000016,-0.00000041,0.00178696,-0.00000006,0.,0.00002783,0.000
 00003,-0.00000002,-0.00010364,0.,0.00000002,0.00004301,0.,0.,0.0000239
 7,0.00000001,0.,0.00002093,0.,0.,-0.00001527,0.,0.,0.00000138,0.000001
 45,-0.00000046,0.00085720,-0.00000003,-0.00000009,-0.00003702,-0.00000
 332,-0.00000127,0.02007091,0.00000049,-0.00000066,0.00443299,-0.000008
 23,-0.00000357,-0.06679816,-0.00000020,0.00000042,-0.00014703,-0.00000
 010,0.,-0.00019505,0.00000222,0.00000049,0.01822428,-0.00000007,-0.000
 00102,0.00438923,0.,0.00000006,-0.00036410,-0.00000026,0.00000054,-0.0
 0296308,0.00000014,0.00000014,-0.00184809,-0.00000002,0.00000039,-0.00
 271023,0.00000920,0.00000592,0.02918834,0.00120716,0.00033230,0.000000
 05,-0.00214295,0.00603045,-0.00000009,0.01548928,0.02265084,-0.0000017
 0,0.00166327,0.00121591,0.00000015,-0.00049471,-0.00001119,0.00000002,
 -0.00038058,-0.00009548,-0.00000002,-0.00017879,0.00031308,0.00000002,
 -0.00140684,-0.00058572,-0.00000004,0.00000412,-0.00000514,0.,-0.00007
 659,-0.00009022,0.,-0.21931466,-0.24311651,0.00002345,-0.00371513,-0.0
 0003335,0.00000023,0.00111353,0.00224543,-0.00000025,-0.00010870,-0.00
 001911,-0.00000008,-0.00797372,-0.00140032,0.00000012,0.00017122,0.000
 43681,0.00000002,0.00016692,0.00007541,0.,0.00196191,-0.00004933,0.000
 00013,-0.00036866,-0.00079177,-0.00000004,0.00005875,0.00000531,0.0000
 0002,-0.00002763,-0.00004034,0.,0.00012450,-0.00001877,-0.00000002,-0.
 00293107,-0.02412826,0.00000168,0.00616086,-0.00279786,-0.00000121,0.2
 1099851,-0.00140294,0.00015449,0.,0.00316186,-0.00352707,0.00000019,-0
 .01040112,-0.03061324,0.00000264,-0.00128879,0.00239947,0.00000004,-0.
 00048345,-0.00137880,-0.00000006,0.00085080,0.00063095,-0.00000002,0.0
 0017148,-0.00014837,0.,0.00091067,-0.00005784,0.00000006,-0.00009734,0
 .00015604,0.,0.00003134,0.00005705,0.,-0.22471762,-0.37263778,0.000035
 15,0.00153564,0.00237879,0.00000019,0.00499906,-0.00766990,-0.00000041
 ,-0.00407864,-0.00002044,0.00000010,0.01290326,0.00589920,0.00000043,0
 .00120357,-0.00385945,-0.00000015,-0.00019994,0.00008063,-0.00000005,-
 0.00473304,0.00088221,0.00000015,0.00264999,0.00341801,0.00000015,0.00
 002397,-0.00007166,-0.00000002,-0.00001723,-0.00006701,-0.00000001,-0.
 00006590,-0.00001043,-0.00000001,-0.00861061,0.01274730,-0.00000055,-0
 .01222286,-0.01008673,-0.00000038,0.23987785,0.40134458,0.00000005,0.0
 0000003,0.00063086,-0.00000007,0.00000009,0.00224622,0.00000081,0.0000
 0086,0.00388672,0.00000006,-0.00000001,-0.00110051,0.00000006,-0.00000
 006,-0.00045342,0.00000004,0.,-0.00000250,-0.00000001,0.,-0.00005233,-
 0.00000008,0.00000004,0.00030600,0.00000001,-0.00000001,0.00007094,0.,
 0.,0.00000598,0.00002334,0.00003803,-0.00259292,-0.00000034,-0.0000006
 2,0.00522166,0.00000031,-0.00000067,-0.00317160,-0.00000023,0.00000005
 ,-0.00044207,0.00000156,0.00000063,-0.00006306,0.00000009,-0.00000024,
 0.00015028,-0.00000002,0.00000001,-0.00012455,-0.00000059,-0.00000008,
 0.00147879,0.00000016,0.00000033,-0.00009293,-0.00000002,-0.00000001,0
 .00016801,0.,0.,-0.00003474,-0.00000002,0.00000002,-0.00022816,-0.0000
 0102,-0.00000057,-0.00461860,-0.00000162,-0.00000033,-0.00357059,-0.00
 002246,-0.00003746,0.00238251\\0.00159983,0.00649826,-0.00000024,0.009
 01334,0.01351771,-0.00000033,0.01687658,-0.00014451,0.00000038,-0.0012
 2315,0.00236931,0.00000012,-0.00053648,-0.00532740,0.00000009,0.001616
 24,0.00179665,-0.00000016,-0.00018833,0.00090536,-0.00000020,0.0005340
 3,-0.00000007,0.00000007,0.00004543,0.00011199,0.00000001,0.00013182,0
 .00021950,-0.00000011,-0.02265997,0.01594402,-0.00000093,0.00591538,0.
 01688231,-0.00000046,-0.01341282,0.00865657,0.00000053,0.01379855,-0.0
 0193426,-0.00000025,0.02348608,0.00534247,-0.00000008,-0.00487536,0.01
 151857,0.00000021,0.00042835,-0.00016484,0.00000009,-0.00624721,0.0002
 9233,-0.00000009,-0.00965321,-0.00267143,0.00000009,-0.00029823,-0.000
 21268,0.00000002,-0.00076450,-0.00003728,0.00000018,-0.00103239,-0.000
 44501,0.,-0.01351185,-0.00875180,0.00000055,-0.01309473,-0.01807374,0.
 00000027,0.01405258,-0.04629202,0.00000024\\\@
 The archive entry for this job was punched.


 IF MATHEMATICALLY YOU END UP WITH THE INCORRECT ANSWER,
 TRY MULTIPLYING BY THE PAGE NUMBER.
 Job cpu time:       0 days  1 hours  1 minutes  2.4 seconds.
 Elapsed time:       0 days  0 hours  6 minutes 17.2 seconds.
 File lengths (MBytes):  RWF=    544 Int=      0 D2E=      0 Chk=     40 Scr=      8
 Normal termination of Gaussian 16 at Wed Oct 28 00:27:00 2020.
