 Entering Gaussian System, Link 0=g16
 Initial command:
 /gpfs/loomis/apps/avx/software/Gaussian/16-C.01_AVX/g16/l1.exe "/home/fas/batista/pev4/scratch60/gauss-scratch/Gau-229068.inp" -scrdir="/home/fas/batista/pev4/scratch60/gauss-scratch/"
 Entering Link 1 = /gpfs/loomis/apps/avx/software/Gaussian/16-C.01_AVX/g16/l1.exe PID=    229069.
  
 Copyright (c) 1988-2019, Gaussian, Inc.  All Rights Reserved.
  
 This is part of the Gaussian(R) 16 program.  It is based on
 the Gaussian(R) 09 system (copyright 2009, Gaussian, Inc.),
 the Gaussian(R) 03 system (copyright 2003, Gaussian, Inc.),
 the Gaussian(R) 98 system (copyright 1998, Gaussian, Inc.),
 the Gaussian(R) 94 system (copyright 1995, Gaussian, Inc.),
 the Gaussian 92(TM) system (copyright 1992, Gaussian, Inc.),
 the Gaussian 90(TM) system (copyright 1990, Gaussian, Inc.),
 the Gaussian 88(TM) system (copyright 1988, Gaussian, Inc.),
 the Gaussian 86(TM) system (copyright 1986, Carnegie Mellon
 University), and the Gaussian 82(TM) system (copyright 1983,
 Carnegie Mellon University). Gaussian is a federally registered
 trademark of Gaussian, Inc.
  
 This software contains proprietary and confidential information,
 including trade secrets, belonging to Gaussian, Inc.
  
 This software is provided under written license and may be
 used, copied, transmitted, or stored only in accord with that
 written license.
  
 The following legend is applicable only to US Government
 contracts under FAR:
  
                    RESTRICTED RIGHTS LEGEND
  
 Use, reproduction and disclosure by the US Government is
 subject to restrictions as set forth in subparagraphs (a)
 and (c) of the Commercial Computer Software - Restricted
 Rights clause in FAR 52.227-19.
  
 Gaussian, Inc.
 340 Quinnipiac St., Bldg. 40, Wallingford CT 06492
  
  
 ---------------------------------------------------------------
 Warning -- This program may not be used in any manner that
 competes with the business of Gaussian, Inc. or will provide
 assistance to any competitor of Gaussian, Inc.  The licensee
 of this program is prohibited from giving any competitor of
 Gaussian, Inc. access to this program.  By using this program,
 the user acknowledges that Gaussian, Inc. is engaged in the
 business of creating and licensing software in the field of
 computational chemistry and represents and warrants to the
 licensee that it is not a competitor of Gaussian, Inc. and that
 it will not use this program in any manner prohibited above.
 ---------------------------------------------------------------
  

 Cite this work as:
 Gaussian 16, Revision C.01,
 M. J. Frisch, G. W. Trucks, H. B. Schlegel, G. E. Scuseria, 
 M. A. Robb, J. R. Cheeseman, G. Scalmani, V. Barone, 
 G. A. Petersson, H. Nakatsuji, X. Li, M. Caricato, A. V. Marenich, 
 J. Bloino, B. G. Janesko, R. Gomperts, B. Mennucci, H. P. Hratchian, 
 J. V. Ortiz, A. F. Izmaylov, J. L. Sonnenberg, D. Williams-Young, 
 F. Ding, F. Lipparini, F. Egidi, J. Goings, B. Peng, A. Petrone, 
 T. Henderson, D. Ranasinghe, V. G. Zakrzewski, J. Gao, N. Rega, 
 G. Zheng, W. Liang, M. Hada, M. Ehara, K. Toyota, R. Fukuda, 
 J. Hasegawa, M. Ishida, T. Nakajima, Y. Honda, O. Kitao, H. Nakai, 
 T. Vreven, K. Throssell, J. A. Montgomery, Jr., J. E. Peralta, 
 F. Ogliaro, M. J. Bearpark, J. J. Heyd, E. N. Brothers, K. N. Kudin, 
 V. N. Staroverov, T. A. Keith, R. Kobayashi, J. Normand, 
 K. Raghavachari, A. P. Rendell, J. C. Burant, S. S. Iyengar, 
 J. Tomasi, M. Cossi, J. M. Millam, M. Klene, C. Adamo, R. Cammi, 
 J. W. Ochterski, R. L. Martin, K. Morokuma, O. Farkas, 
 J. B. Foresman, and D. J. Fox, Gaussian, Inc., Wallingford CT, 2019.
 
 ******************************************
 Gaussian 16:  ES64L-G16RevC.01  3-Jul-2019
                27-Oct-2020 
 ******************************************
 %chk=config_7_10.chk
 %mem=58GB
 %nprocshared=10
 Will use up to   10 processors via shared memory.
 ----------------------------------------------------------------------
 #p opt=addgic freq wb97xd/cc-pvdz nosymm int=ultrafine scrf=(solvent=C
 arbonTetraChloride)
 ----------------------------------------------------------------------
 1/18=20,19=15,26=6,38=1,145=903/1,3;
 2/9=110,12=2,15=1,17=6,18=5,40=1/2;
 3/5=16,11=2,25=1,30=1,70=2201,71=1,72=11,74=-58,75=-5/1,2,3;
 4//1;
 5/5=2,38=5,53=11/2;
 6/7=2,8=2,9=2,10=2,28=1/1;
 7/30=1/1,2,3,16;
 1/18=20,19=15,26=6,145=903/3(2);
 2/9=110,15=1/2;
 99//99;
 2/9=110,15=1/2;
 3/5=16,11=2,25=1,30=1,70=2205,71=1,72=11,74=-58,75=-5/1,2,3;
 4/5=5,16=3,69=1/1;
 5/5=2,38=5,53=11/2;
 7/30=1/1,2,3,16;
 1/18=20,19=15,26=6,145=903/3(-5);
 2/9=110,15=1/2;
 6/7=2,8=2,9=2,10=2,19=2,28=1/1;
 99/9=1/99;
 Leave Link    1 at Tue Oct 27 22:49:11 2020, MaxMem=  7784628224 cpu:               3.0 elap:               0.4
 (Enter /gpfs/loomis/apps/avx/software/Gaussian/16-C.01_AVX/g16/l101.exe)
 ------------------------------------------------
 NM 2D-scan of HBT TD-WB97XD pVDZ in CTC Relaxed.
 ------------------------------------------------
 Symbolic Z-matrix:
 Charge =  0 Multiplicity = 1
 C                     1.63381  -3.26028  -0.00002 
 C                     1.00165  -2.01997  -0.00002 
 C                     1.73536  -0.7996   -0.00002 
 C                     3.14265  -0.85457  -0.00002 
 C                     3.76449  -2.09617  -0.00002 
 C                     3.02676  -3.29184  -0.00002 
 H                     1.05069  -4.18235  -0.00002 
 H                     3.72185   0.06975  -0.00003 
 H                     4.85511  -2.1428   -0.00002 
 H                     3.54566  -4.25136  -0.00002 
 N                     0.94758   0.31231  -0.00002 
 S                    -0.72286  -1.70571  -0.00002 
 C                    -1.36395   1.03863   0.00001 
 C                    -2.74329   0.80173   0.00001 
 C                    -0.88518   2.43766   0.00003 
 C                    -3.6498    1.87356   0.00003 
 H                    -3.12073  -0.22286  -0.00001 
 C                    -1.83822   3.4862    0.00005 
 C                    -3.20511   3.20734   0.00005 
 H                    -4.72029   1.66101   0.00003 
 H                    -1.45739   4.50847   0.00007 
 H                    -3.93007   4.02184   0.00006 
 C                    -0.38059   0.01816  -0.00002 
 O                     0.37942   2.66925   0.00004 
 H                     0.9586    1.50815   0.00001 
 
 Initializing the GIC definitions file.
 Number of initial coordinates =   134
 Number of input entries/lines =    52
 Number of additional coordinates =     2
 Number of removed coordinates =     0
 Number of frozen coordinates =     2
 Number of final active and frozen coordinates =   136
 ITRead=  0  0  0  0  0  0  0  0  0  0  0  0  0  0  0  0  0  0  0  0
 ITRead=  0  0  0  0  0
 MicOpt= -1 -1 -1 -1 -1 -1 -1 -1 -1 -1 -1 -1 -1 -1 -1 -1 -1 -1 -1 -1
 MicOpt= -1 -1 -1 -1 -1
 NAtoms=     25 NQM=       25 NQMF=       0 NMMI=      0 NMMIF=      0
                NMic=       0 NMicF=      0.
                    Isotopes and Nuclear Properties:
 (Nuclear quadrupole moments (NQMom) in fm**2, nuclear magnetic moments (NMagM)
  in nuclear magnetons)

  Atom         1           2           3           4           5           6           7           8           9          10
 IAtWgt=          12          12          12          12          12          12           1           1           1           1
 AtmWgt=  12.0000000  12.0000000  12.0000000  12.0000000  12.0000000  12.0000000   1.0078250   1.0078250   1.0078250   1.0078250
 NucSpn=           0           0           0           0           0           0           1           1           1           1
 AtZEff=  -0.0000000  -0.0000000  -0.0000000  -0.0000000  -0.0000000  -0.0000000  -0.0000000  -0.0000000  -0.0000000  -0.0000000
 NQMom=    0.0000000   0.0000000   0.0000000   0.0000000   0.0000000   0.0000000   0.0000000   0.0000000   0.0000000   0.0000000
 NMagM=    0.0000000   0.0000000   0.0000000   0.0000000   0.0000000   0.0000000   2.7928460   2.7928460   2.7928460   2.7928460
 AtZNuc=   6.0000000   6.0000000   6.0000000   6.0000000   6.0000000   6.0000000   1.0000000   1.0000000   1.0000000   1.0000000

  Atom        11          12          13          14          15          16          17          18          19          20
 IAtWgt=          14          32          12          12          12          12           1          12          12           1
 AtmWgt=  14.0030740  31.9720718  12.0000000  12.0000000  12.0000000  12.0000000   1.0078250  12.0000000  12.0000000   1.0078250
 NucSpn=           2           0           0           0           0           0           1           0           0           1
 AtZEff=  -0.0000000  -0.0000000  -0.0000000  -0.0000000  -0.0000000  -0.0000000  -0.0000000  -0.0000000  -0.0000000  -0.0000000
 NQMom=    2.0440000   0.0000000   0.0000000   0.0000000   0.0000000   0.0000000   0.0000000   0.0000000   0.0000000   0.0000000
 NMagM=    0.4037610   0.0000000   0.0000000   0.0000000   0.0000000   0.0000000   2.7928460   0.0000000   0.0000000   2.7928460
 AtZNuc=   7.0000000  16.0000000   6.0000000   6.0000000   6.0000000   6.0000000   1.0000000   6.0000000   6.0000000   1.0000000

  Atom        21          22          23          24          25
 IAtWgt=           1           1          12          16           1
 AtmWgt=   1.0078250   1.0078250  12.0000000  15.9949146   1.0078250
 NucSpn=           1           1           0           0           1
 AtZEff=  -0.0000000  -0.0000000  -0.0000000  -0.0000000  -0.0000000
 NQMom=    0.0000000   0.0000000   0.0000000   0.0000000   0.0000000
 NMagM=    2.7928460   2.7928460   0.0000000   0.0000000   2.7928460
 AtZNuc=   1.0000000   1.0000000   6.0000000   8.0000000   1.0000000
 Leave Link  101 at Tue Oct 27 22:49:16 2020, MaxMem=  7784628224 cpu:              30.1 elap:               4.3
 (Enter /gpfs/loomis/apps/avx/software/Gaussian/16-C.01_AVX/g16/l103.exe)

 GradGradGradGradGradGradGradGradGradGradGradGradGradGradGradGradGradGrad
 Berny optimization.
 Initialization pass.
                           ----------------------------
                           !    Initial Parameters    !
                           ! (Angstroms and Degrees)  !
 --------------------------                            --------------------------
 ! Name  Definition              Value          Derivative Info.                !
 --------------------------------------------------------------------------------
 ! R1    R(1,2)                  1.3921         estimate D2E/DX2                !
 ! R2    R(1,6)                  1.3933         estimate D2E/DX2                !
 ! R3    R(1,7)                  1.091          estimate D2E/DX2                !
 ! R4    R(2,3)                  1.4239         estimate D2E/DX2                !
 ! R5    R(2,12)                 1.7529         estimate D2E/DX2                !
 ! R6    R(3,4)                  1.4084         estimate D2E/DX2                !
 ! R7    R(3,11)                 1.3627         estimate D2E/DX2                !
 ! R8    R(4,5)                  1.3886         estimate D2E/DX2                !
 ! R9    R(4,8)                  1.0908         estimate D2E/DX2                !
 ! R10   R(5,6)                  1.4049         estimate D2E/DX2                !
 ! R11   R(5,9)                  1.0916         estimate D2E/DX2                !
 ! R12   R(6,10)                 1.0908         estimate D2E/DX2                !
 ! R13   R(11,23)                1.3603         estimate D2E/DX2                !
 ! R14   R(11,25)                1.1959         estimate D2E/DX2                !
 ! R15   R(12,23)                1.7575         estimate D2E/DX2                !
 ! R16   R(13,14)                1.3995         estimate D2E/DX2                !
 ! R17   R(13,15)                1.4787         estimate D2E/DX2                !
 ! R18   R(13,23)                1.4172         estimate D2E/DX2                !
 ! R19   R(14,16)                1.4038         estimate D2E/DX2                !
 ! R20   R(14,17)                1.0919         estimate D2E/DX2                !
 ! R21   R(15,18)                1.4169         estimate D2E/DX2                !
 ! R22   R(15,24)                1.2856         estimate D2E/DX2                !
 ! R23   R(16,19)                1.406          estimate D2E/DX2                !
 ! R24   R(16,20)                1.0914         estimate D2E/DX2                !
 ! R25   R(18,19)                1.395          estimate D2E/DX2                !
 ! R26   R(18,21)                1.0909         estimate D2E/DX2                !
 ! R27   R(19,22)                1.0904         estimate D2E/DX2                !
 ! A1    A(2,1,6)              118.3047         estimate D2E/DX2                !
 ! A2    A(2,1,7)              120.6835         estimate D2E/DX2                !
 ! A3    A(6,1,7)              121.0118         estimate D2E/DX2                !
 ! A4    A(1,2,3)              121.9777         estimate D2E/DX2                !
 ! A5    A(1,2,12)             127.3347         estimate D2E/DX2                !
 ! A6    A(3,2,12)             110.6876         estimate D2E/DX2                !
 ! A7    A(2,3,4)              118.7782         estimate D2E/DX2                !
 ! A8    A(2,3,11)             113.6675         estimate D2E/DX2                !
 ! A9    A(4,3,11)             127.5543         estimate D2E/DX2                !
 ! A10   A(3,4,5)              118.8407         estimate D2E/DX2                !
 ! A11   A(3,4,8)              119.8349         estimate D2E/DX2                !
 ! A12   A(5,4,8)              121.3244         estimate D2E/DX2                !
 ! A13   A(4,5,6)              121.7213         estimate D2E/DX2                !
 ! A14   A(4,5,9)              119.0522         estimate D2E/DX2                !
 ! A15   A(6,5,9)              119.2265         estimate D2E/DX2                !
 ! A16   A(1,6,5)              120.3773         estimate D2E/DX2                !
 ! A17   A(1,6,10)             119.7015         estimate D2E/DX2                !
 ! A18   A(5,6,10)             119.9212         estimate D2E/DX2                !
 ! A19   A(3,11,23)            112.8295         estimate D2E/DX2                !
 ! A20   A(3,11,25)            144.1547         estimate D2E/DX2                !
 ! A21   A(23,11,25)           103.0159         estimate D2E/DX2                !
 ! A22   A(2,12,23)             89.0976         estimate D2E/DX2                !
 ! A23   A(14,13,15)           118.637          estimate D2E/DX2                !
 ! A24   A(14,13,23)           124.1933         estimate D2E/DX2                !
 ! A25   A(15,13,23)           117.1696         estimate D2E/DX2                !
 ! A26   A(13,14,16)           120.4777         estimate D2E/DX2                !
 ! A27   A(13,14,17)           119.9686         estimate D2E/DX2                !
 ! A28   A(16,14,17)           119.5536         estimate D2E/DX2                !
 ! A29   A(13,15,18)           118.8402         estimate D2E/DX2                !
 ! A30   A(13,15,24)           119.2693         estimate D2E/DX2                !
 ! A31   A(18,15,24)           121.8905         estimate D2E/DX2                !
 ! A32   A(14,16,19)           121.3378         estimate D2E/DX2                !
 ! A33   A(14,16,20)           118.993          estimate D2E/DX2                !
 ! A34   A(19,16,20)           119.6692         estimate D2E/DX2                !
 ! A35   A(15,18,19)           120.7375         estimate D2E/DX2                !
 ! A36   A(15,18,21)           117.2992         estimate D2E/DX2                !
 ! A37   A(19,18,21)           121.9634         estimate D2E/DX2                !
 ! A38   A(16,19,18)           119.9698         estimate D2E/DX2                !
 ! A39   A(16,19,22)           119.89           estimate D2E/DX2                !
 ! A40   A(18,19,22)           120.1403         estimate D2E/DX2                !
 ! A41   A(11,23,12)           113.7179         estimate D2E/DX2                !
 ! A42   A(11,23,13)           121.451          estimate D2E/DX2                !
 ! A43   A(12,23,13)           124.8311         estimate D2E/DX2                !
 ! D1    D(6,1,2,3)              0.0            estimate D2E/DX2                !
 ! D2    D(6,1,2,12)          -180.0            estimate D2E/DX2                !
 ! D3    D(7,1,2,3)            179.9999         estimate D2E/DX2                !
 ! D4    D(7,1,2,12)             0.0            estimate D2E/DX2                !
 ! D5    D(2,1,6,5)             -0.0001         estimate D2E/DX2                !
 ! D6    D(2,1,6,10)           180.0            estimate D2E/DX2                !
 ! D7    D(7,1,6,5)            180.0            estimate D2E/DX2                !
 ! D8    D(7,1,6,10)             0.0            estimate D2E/DX2                !
 ! D9    D(1,2,3,4)              0.0001         estimate D2E/DX2                !
 ! D10   D(1,2,3,11)           180.0            estimate D2E/DX2                !
 ! D11   D(12,2,3,4)          -179.9999         estimate D2E/DX2                !
 ! D12   D(12,2,3,11)            0.0            estimate D2E/DX2                !
 ! D13   D(1,2,12,23)          179.9998         estimate D2E/DX2                !
 ! D14   D(3,2,12,23)           -0.0002         estimate D2E/DX2                !
 ! D15   D(2,3,4,5)             -0.0001         estimate D2E/DX2                !
 ! D16   D(2,3,4,8)            179.9999         estimate D2E/DX2                !
 ! D17   D(11,3,4,5)          -180.0            estimate D2E/DX2                !
 ! D18   D(11,3,4,8)             0.0            estimate D2E/DX2                !
 ! D19   D(2,3,11,23)            0.0003         estimate D2E/DX2                !
 ! D20   D(2,3,11,25)          179.9971         estimate D2E/DX2                !
 ! D21   D(4,3,11,23)         -179.9998         estimate D2E/DX2                !
 ! D22   D(4,3,11,25)           -0.003          estimate D2E/DX2                !
 ! D23   D(3,4,5,6)              0.0            estimate D2E/DX2                !
 ! D24   D(3,4,5,9)           -180.0            estimate D2E/DX2                !
 ! D25   D(8,4,5,6)            180.0            estimate D2E/DX2                !
 ! D26   D(8,4,5,9)              0.0            estimate D2E/DX2                !
 ! D27   D(4,5,6,1)              0.0001         estimate D2E/DX2                !
 ! D28   D(4,5,6,10)          -180.0            estimate D2E/DX2                !
 ! D29   D(9,5,6,1)           -180.0            estimate D2E/DX2                !
 ! D30   D(9,5,6,10)             0.0            estimate D2E/DX2                !
 ! D31   D(3,11,23,12)          -0.0004         estimate D2E/DX2                !
 ! D32   D(3,11,23,13)         179.9989         estimate D2E/DX2                !
 ! D33   D(25,11,23,12)       -179.9985         estimate D2E/DX2                !
 ! D34   D(25,11,23,13)          0.0008         estimate D2E/DX2                !
 ! D35   D(2,12,23,11)           0.0003         estimate D2E/DX2                !
 ! D36   D(2,12,23,13)        -179.9989         estimate D2E/DX2                !
 ! D37   D(15,13,14,16)          0.0003         estimate D2E/DX2                !
 ! D38   D(15,13,14,17)       -179.9998         estimate D2E/DX2                !
 ! D39   D(23,13,14,16)       -179.9998         estimate D2E/DX2                !
 ! D40   D(23,13,14,17)          0.0            estimate D2E/DX2                !
 ! D41   D(14,13,15,18)         -0.0004         estimate D2E/DX2                !
 ! D42   D(14,13,15,24)        179.9994         estimate D2E/DX2                !
 ! D43   D(23,13,15,18)        179.9997         estimate D2E/DX2                !
 ! D44   D(23,13,15,24)         -0.0005         estimate D2E/DX2                !
 ! D45   D(14,13,23,11)        179.9997         estimate D2E/DX2                !
 ! D46   D(14,13,23,12)         -0.0011         estimate D2E/DX2                !
 ! D47   D(15,13,23,11)         -0.0004         estimate D2E/DX2                !
 ! D48   D(15,13,23,12)        179.9988         estimate D2E/DX2                !
 ! D49   D(13,14,16,19)         -0.0001         estimate D2E/DX2                !
 ! D50   D(13,14,16,20)        179.9999         estimate D2E/DX2                !
 ! D51   D(17,14,16,19)       -179.9999         estimate D2E/DX2                !
 ! D52   D(17,14,16,20)          0.0001         estimate D2E/DX2                !
 ! D53   D(13,15,18,19)          0.0003         estimate D2E/DX2                !
 ! D54   D(13,15,18,21)        179.9999         estimate D2E/DX2                !
 ! D55   D(24,15,18,19)       -179.9996         estimate D2E/DX2                !
 ! D56   D(24,15,18,21)          0.0001         estimate D2E/DX2                !
 ! D57   D(14,16,19,18)         -0.0001         estimate D2E/DX2                !
 ! D58   D(14,16,19,22)       -180.0            estimate D2E/DX2                !
 ! D59   D(20,16,19,18)        179.9999         estimate D2E/DX2                !
 ! D60   D(20,16,19,22)          0.0            estimate D2E/DX2                !
 ! D61   D(15,18,19,16)          0.0            estimate D2E/DX2                !
 ! D62   D(15,18,19,22)        179.9999         estimate D2E/DX2                !
 ! D63   D(21,18,19,16)       -179.9997         estimate D2E/DX2                !
 ! D64   D(21,18,19,22)          0.0002         estimate D2E/DX2                !
 ! Qtot  GIC-1                  10.0            Frozen                          !
 ! Ptot  GIC-2                  40.0            Frozen                          !
 --------------------------------------------------------------------------------
 NOTE: GIC-type coordinates are in arbitrary units.
 Trust Radius=3.00D-01 FncErr=5.00D-06 GrdErr=5.00D-06 EigMax=2.50D+02 EigMin=1.00D-04
 Number of steps in this run=    146 maximum allowed number of steps=    150.
 GradGradGradGradGradGradGradGradGradGradGradGradGradGradGradGradGradGrad

 Leave Link  103 at Tue Oct 27 22:49:16 2020, MaxMem=  7784628224 cpu:               0.2 elap:               0.0
 (Enter /gpfs/loomis/apps/avx/software/Gaussian/16-C.01_AVX/g16/l202.exe)
                          Input orientation:                          
 ---------------------------------------------------------------------
 Center     Atomic      Atomic             Coordinates (Angstroms)
 Number     Number       Type             X           Y           Z
 ---------------------------------------------------------------------
      1          6           0        1.633814   -3.260283   -0.000021
      2          6           0        1.001648   -2.019966   -0.000022
      3          6           0        1.735359   -0.799599   -0.000023
      4          6           0        3.142649   -0.854571   -0.000025
      5          6           0        3.764494   -2.096168   -0.000023
      6          6           0        3.026757   -3.291835   -0.000020
      7          1           0        1.050692   -4.182354   -0.000019
      8          1           0        3.721845    0.069753   -0.000027
      9          1           0        4.855110   -2.142803   -0.000023
     10          1           0        3.545655   -4.251362   -0.000018
     11          7           0        0.947581    0.312307   -0.000024
     12         16           0       -0.722858   -1.705713   -0.000022
     13          6           0       -1.363945    1.038630    0.000006
     14          6           0       -2.743286    0.801726    0.000007
     15          6           0       -0.885184    2.437656    0.000033
     16          6           0       -3.649803    1.873560    0.000027
     17          1           0       -3.120730   -0.222864   -0.000010
     18          6           0       -1.838225    3.486198    0.000051
     19          6           0       -3.205109    3.207336    0.000048
     20          1           0       -4.720289    1.661009    0.000026
     21          1           0       -1.457385    4.508468    0.000072
     22          1           0       -3.930070    4.021840    0.000064
     23          6           0       -0.380586    0.018155   -0.000018
     24          8           0        0.379417    2.669249    0.000044
     25          1           0        0.958601    1.508149    0.000010
 ---------------------------------------------------------------------
                    Distance matrix (angstroms):
                    1          2          3          4          5
     1  C    0.000000
     2  C    1.392128   0.000000
     3  C    2.462778   1.423948   0.000000
     4  C    2.839724   2.437628   1.408363   0.000000
     5  C    2.427954   2.763897   2.408004   1.388616   0.000000
     6  C    1.393300   2.391384   2.806947   2.440018   1.404947
     7  H    1.090985   2.162944   3.451348   3.930703   3.422995
     8  H    3.930523   3.430219   2.168387   1.090800   2.166341
     9  H    3.409620   3.855420   3.396623   2.142910   1.091612
    10  H    2.153456   3.383948   3.897671   3.420615   2.166276
    11  N    3.637900   2.332900   1.362692   2.485946   3.706178
    12  S    2.823224   1.752905   2.619900   3.958104   4.504308
    13  C    5.240917   3.866657   3.603438   4.888108   6.010644
    14  C    5.971509   4.688974   4.756312   6.114536   7.123833
    15  C    6.229916   4.840509   4.164981   5.202134   6.494233
    16  C    7.367017   6.065932   6.012133   7.319843   8.410145
    17  H    5.641950   4.497063   4.890217   6.295154   7.135516
    18  C    7.587493   6.195379   5.580193   6.606919   7.909062
    19  C    8.077454   6.709805   6.361112   7.536120   8.757997
    20  H    8.037023   6.803685   6.908689   8.255539   9.279435
    21  H    8.361161   6.976195   6.194287   7.065586   8.419575
    22  H    9.164394   7.799056   7.439312   8.590852   9.830379
    23  C    3.847851   2.462622   2.268467   3.629715   4.653176
    24  O    6.060764   4.730318   3.724444   4.478030   5.845335
    25  H    4.815999   3.528378   2.434964   3.217531   4.567727
                    6          7          8          9         10
     6  C    0.000000
     7  H    2.167454   0.000000
     8  H    3.432699   5.021502   0.000000
     9  H    2.159433   4.316638   2.485899   0.000000
    10  H    1.090847   2.495917   4.324706   2.482074   0.000000
    11  N    4.160867   4.495844   2.784847   4.614797   5.251387
    12  S    4.071290   3.046184   4.786196   5.595068   4.969964
    13  C    6.166943   5.752317   5.177256   6.985568   7.217215
    14  C    7.074647   6.263811   6.506436   8.148980   8.067495
    15  C    6.937604   6.897257   5.179931   7.343812   8.023422
    16  C    8.441431   7.666078   7.589131   9.405568   9.449301
    17  H    6.870966   5.751376   6.848829   8.203669   7.789062
    18  C    8.343248   8.194665   6.525831   8.745649   9.426346
    19  C    9.004186   8.527565   7.604414   9.674250  10.060069
    20  H    9.194965   8.212741   8.590793  10.303264  10.162773
    21  H    8.997348   9.045488   6.821042   9.169897  10.087866
    22  H   10.093923   9.597750   8.612247  10.732298  11.150442
    23  C    4.750370   4.437661   4.102755   5.664119   5.800357
    24  O    6.522494   6.884408   4.234289   6.571733   7.610514
    25  H    5.226577   5.691248   3.115204   5.339684   6.313859
                   11         12         13         14         15
    11  N    0.000000
    12  S    2.619689   0.000000
    13  C    2.422952   2.818228   0.000000
    14  C    3.723174   3.220151   1.399537   0.000000
    15  C    2.806445   4.146547   1.478678   2.475644   0.000000
    16  C    4.855249   4.623656   2.433568   1.403781   2.821582
    17  H    4.103360   2.819331   2.162790   1.091901   3.475059
    18  C    4.223067   5.310365   2.493097   2.832937   1.416943
    19  C    5.062215   5.504508   2.844849   2.449539   2.444270
    20  H    5.826126   5.226305   3.413561   2.155669   3.912955
    21  H    4.836489   6.257442   3.471097   3.923453   2.148413
    22  H    6.127978   6.564379   3.935041   3.431850   3.432342
    23  C    1.360350   1.757518   1.417168   2.489244   2.471559
    24  O    2.424455   4.511685   2.387097   3.638532   1.285632
    25  H    1.195892   3.627150   2.369530   3.768687   2.064831
                   16         17         18         19         20
    16  C    0.000000
    17  H    2.162154   0.000000
    18  C    2.425370   3.924534   0.000000
    19  C    1.405956   3.431237   1.395040   0.000000
    20  H    1.091384   2.471349   3.411395   2.164925   0.000000
    21  H    3.427746   5.015199   1.090905   2.178872   4.330654
    22  H    2.166486   4.321174   2.159336   1.090407   2.489573
    23  C    3.759030   2.750724   3.761919   4.260141   4.640258
    24  O    4.107035   4.540413   2.363332   3.624688   5.198418
    25  H    4.622869   4.431405   3.425626   4.497079   5.680947
                   21         22         23         24         25
    21  H    0.000000
    22  H    2.520115   0.000000
    23  C    4.617620   5.350546   0.000000
    24  O    2.599341   4.516767   2.757880   0.000000
    25  H    3.852131   5.497068   2.003373   1.297539   0.000000
 Symmetry turned off by external request.
 Stoichiometry    C13H9NOS
 Framework group  C1[X(C13H9NOS)]
 Deg. of freedom    69
 Full point group                 C1      NOp   1
 Rotational constants (GHZ):           1.3900172           0.2861070           0.2372698
 Leave Link  202 at Tue Oct 27 22:49:16 2020, MaxMem=  7784628224 cpu:               0.2 elap:               0.1
 (Enter /gpfs/loomis/apps/avx/software/Gaussian/16-C.01_AVX/g16/l301.exe)
 Standard basis: CC-pVDZ (5D, 7F)
 Ernie: Thresh=  0.10000D-02 Tol=  0.10000D-05 Strict=F.
 Ernie:  40 primitive shells out of 425 were deleted.
   273 basis functions,   629 primitive gaussians,   289 cartesian basis functions
    59 alpha electrons       59 beta electrons
       nuclear repulsion energy      1099.3891121525 Hartrees.
 IExCor= 4639 DFT=T Ex+Corr=wB97XD ExCW=0 ScaHFX=  1.000000
 ScaDFX=  1.000000  1.000000  1.000000  1.000000 ScalE2=  1.000000  1.000000
 IRadAn=      5 IRanWt=     -1 IRanGd=            0 ICorTp=0 IEmpDi=121
 HFx  wShort=  0.000000 wLong=  0.200000 cFull=  0.222036 cShort=  0.000000 cLong=  0.777964
 DFx  wShort=  0.000000 wLong=  0.200000 cFull=  0.000000 cShort=  0.000000 cLong=  1.000000
 NAtoms=   25 NActive=   25 NUniq=   25 SFac= 1.00D+00 NAtFMM=   60 NAOKFM=F Big=F
 Integral buffers will be    131072 words long.
 Raffenetti 2 integral format.
 Two-electron integral symmetry is turned off.
 R6Disp:  Grimme-D2 Dispersion energy=       -0.0139367424 Hartrees.
 Nuclear repulsion after empirical dispersion term =     1099.3751754101 Hartrees.
 ------------------------------------------------------------------------------
 Polarizable Continuum Model (PCM)
 =================================
 Model                : PCM.
 Atomic radii         : UFF (Universal Force Field).
 Polarization charges : Total charges.
 Charge compensation  : None.
 Solution method      : On-the-fly selection.
 Cavity type          : Scaled VdW (van der Waals Surface) (Alpha=1.100).
 Cavity algorithm     : GePol (No added spheres)
                        Default sphere list used, NSphG=   25.
                        Lebedev-Laikov grids with approx.  5.0 points / Ang**2.
                        Smoothing algorithm: York/Karplus (Gamma=1.0000).
                        Polarization charges: spherical gaussians, with
                                              point-specific exponents (IZeta= 3).
                        Self-potential: point-specific (ISelfS= 7).
                        Self-field    : sphere-specific E.n sum rule (ISelfD= 2).
 1st derivatives      : Analytical E(r).r(x)/FMM algorithm (CHGder, D1EAlg=3).
                        Cavity 1st derivative terms included.
 Solvent              : CarbonTetraChloride, Eps=   2.228000 Eps(inf)=   2.131892
 ------------------------------------------------------------------------------
 GePol: Number of generator spheres                  =      25
 GePol: Total number of spheres                      =      25
 GePol: Number of exposed spheres                    =      25 (100.00%)
 GePol: Number of points                             =    2173
 GePol: Average weight of points                     =       0.13
 GePol: Minimum weight of points                     =   0.97D-09
 GePol: Maximum weight of points                     =    0.20577
 GePol: Number of points with low weight             =     132
 GePol: Fraction of low-weight points (<1% of avg)   =       6.07%
 GePol: Cavity surface area                          =    272.727 Ang**2
 GePol: Cavity volume                                =    292.411 Ang**3
 Leave Link  301 at Tue Oct 27 22:49:16 2020, MaxMem=  7784628224 cpu:               1.4 elap:               0.3
 (Enter /gpfs/loomis/apps/avx/software/Gaussian/16-C.01_AVX/g16/l302.exe)
 NPDir=0 NMtPBC=     1 NCelOv=     1 NCel=       1 NClECP=     1 NCelD=      1
         NCelK=      1 NCelE2=     1 NClLst=     1 CellRange=     0.0.
 One-electron integrals computed using PRISM.
 NBasis=   273 RedAO= T EigKep=  3.10D-04  NBF=   273
 NBsUse=   273 1.00D-06 EigRej= -1.00D+00 NBFU=   273
 Precomputing XC quadrature grid using
 IXCGrd= 4 IRadAn=           5 IRanWt=          -1 IRanGd=           0 AccXCQ= 0.00D+00.
 Generated NRdTot=       0 NPtTot=           0 NUsed=           0 NTot=          32
 NSgBfM=   288   288   288   288   288 MxSgAt=    25 MxSgA2=    25.
 Leave Link  302 at Tue Oct 27 22:49:17 2020, MaxMem=  7784628224 cpu:              10.1 elap:               1.1
 (Enter /gpfs/loomis/apps/avx/software/Gaussian/16-C.01_AVX/g16/l303.exe)
 DipDrv:  MaxL=1.
 Leave Link  303 at Tue Oct 27 22:49:17 2020, MaxMem=  7784628224 cpu:               0.4 elap:               0.1
 (Enter /gpfs/loomis/apps/avx/software/Gaussian/16-C.01_AVX/g16/l401.exe)
 ExpMin= 1.22D-01 ExpMax= 1.11D+05 ExpMxC= 1.07D+03 IAcc=3 IRadAn=         5 AccDes= 0.00D+00
 Harris functional with IExCor= 4639 and IRadAn=       5 diagonalized for initial guess.
 HarFok:  IExCor= 4639 AccDes= 0.00D+00 IRadAn=         5 IDoV= 1 UseB2=F ITyADJ=14
 ICtDFT=  3500011 ScaDFX=  1.000000  1.000000  1.000000  1.000000
 FoFCou: FMM=F IPFlag=           0 FMFlag=      100000 FMFlg1=           0
         NFxFlg=           0 DoJE=T BraDBF=F KetDBF=T FulRan=T
         wScrn=  0.000000 ICntrl=       500 IOpCl=  0 I1Cent=   200000004 NGrid=           0
         NMat0=    1 NMatS0=      1 NMatT0=    0 NMatD0=    1 NMtDS0=    0 NMtDT0=    0
 Symmetry not used in FoFCou.
 Harris En= -994.458774292893    
 JPrj=0 DoOrth=F DoCkMO=F.
 Leave Link  401 at Tue Oct 27 22:49:19 2020, MaxMem=  7784628224 cpu:              14.2 elap:               1.7
 (Enter /gpfs/loomis/apps/avx/software/Gaussian/16-C.01_AVX/g16/l502.exe)
 Two-electron integral symmetry not used.
 Closed shell SCF:
 Using DIIS extrapolation, IDIIS=  1040.
 NGot=  7784628224 LenX=  7784455381 LenY=  7784371419
 Requested convergence on RMS density matrix=1.00D-08 within 128 cycles.
 Requested convergence on MAX density matrix=1.00D-06.
 Requested convergence on             energy=1.00D-06.
 No special actions if energy rises.
 Fock matrices will be formed incrementally for  20 cycles.

 Cycle   1  Pass 1  IDiag  1:
 FoFJK:  IHMeth= 1 ICntrl=       0 DoSepK=T KAlg= 0 I1Cent=           0 FoldK=F
 IRaf=         1 NMat=       1 IRICut=       1 DoRegI=T DoRafI=F ISym2E= 0 IDoP0=0 IntGTp=1.
 FoFCou: FMM=F IPFlag=           0 FMFlag=      100000 FMFlg1=           0
         NFxFlg=           0 DoJE=T BraDBF=F KetDBF=F FulRan=T
         wScrn=  0.000000 ICntrl=       500 IOpCl=  0 I1Cent=           0 NGrid=           0
         NMat0=    1 NMatS0=      1 NMatT0=    0 NMatD0=    1 NMtDS0=    0 NMtDT0=    0
 Symmetry not used in FoFCou.
 Inv3:  Mode=1 IEnd=    14165787.
 Iteration    1 A*A^-1 deviation from unit magnitude is 5.11D-15 for   2172.
 Iteration    1 A*A^-1 deviation from orthogonality  is 3.90D-15 for   2167    130.
 Iteration    1 A^-1*A deviation from unit magnitude is 4.88D-15 for   2172.
 Iteration    1 A^-1*A deviation from orthogonality  is 1.92D-15 for   2158   2068.
 E= -1028.56808514715    
 DIIS: error= 3.85D-02 at cycle   1 NSaved=   1.
 NSaved= 1 IEnMin= 1 EnMin= -1028.56808514715     IErMin= 1 ErrMin= 3.85D-02
 ErrMax= 3.85D-02  0.00D+00 EMaxC= 1.00D-01 BMatC= 3.95D-01 BMatP= 3.95D-01
 IDIUse=3 WtCom= 6.15D-01 WtEn= 3.85D-01
 Coeff-Com:  0.100D+01
 Coeff-En:   0.100D+01
 Coeff:      0.100D+01
 Gap=     0.336 Goal=   None    Shift=    0.000
 GapD=    0.336 DampG=1.000 DampE=0.500 DampFc=0.5000 IDamp=-1.
 Damping current iteration by 5.00D-01
 RMSDP=3.56D-03 MaxDP=2.27D-01              OVMax= 1.80D-01

 Cycle   2  Pass 1  IDiag  1:
 RMSU=  1.77D-03    CP:  9.93D-01
 E= -1028.68758195853     Delta-E=       -0.119496811379 Rises=F Damp=T
 DIIS: error= 1.22D-02 at cycle   2 NSaved=   2.
 NSaved= 2 IEnMin= 2 EnMin= -1028.68758195853     IErMin= 2 ErrMin= 1.22D-02
 ErrMax= 1.22D-02  0.00D+00 EMaxC= 1.00D-01 BMatC= 5.81D-02 BMatP= 3.95D-01
 IDIUse=3 WtCom= 8.78D-01 WtEn= 1.22D-01
 Coeff-Com: -0.283D+00 0.128D+01
 Coeff-En:   0.000D+00 0.100D+01
 Coeff:     -0.248D+00 0.125D+01
 Gap=     0.298 Goal=   None    Shift=    0.000
 RMSDP=1.15D-03 MaxDP=2.51D-02 DE=-1.19D-01 OVMax= 1.19D-01

 Cycle   3  Pass 1  IDiag  1:
 RMSU=  1.10D-03    CP:  9.92D-01  1.19D+00
 E= -1028.79416604179     Delta-E=       -0.106584083263 Rises=F Damp=F
 DIIS: error= 5.93D-03 at cycle   3 NSaved=   3.
 NSaved= 3 IEnMin= 3 EnMin= -1028.79416604179     IErMin= 3 ErrMin= 5.93D-03
 ErrMax= 5.93D-03  0.00D+00 EMaxC= 1.00D-01 BMatC= 1.46D-02 BMatP= 5.81D-02
 IDIUse=3 WtCom= 9.41D-01 WtEn= 5.93D-02
 Coeff-Com: -0.201D+00 0.488D+00 0.713D+00
 Coeff-En:   0.000D+00 0.000D+00 0.100D+01
 Coeff:     -0.189D+00 0.459D+00 0.730D+00
 Gap=     0.253 Goal=   None    Shift=    0.000
 RMSDP=5.43D-04 MaxDP=2.00D-02 DE=-1.07D-01 OVMax= 3.87D-02

 Cycle   4  Pass 1  IDiag  1:
 RMSU=  4.32D-04    CP:  9.89D-01  1.34D+00  8.37D-01
 E= -1028.80778635909     Delta-E=       -0.013620317302 Rises=F Damp=F
 DIIS: error= 2.10D-03 at cycle   4 NSaved=   4.
 NSaved= 4 IEnMin= 4 EnMin= -1028.80778635909     IErMin= 4 ErrMin= 2.10D-03
 ErrMax= 2.10D-03  0.00D+00 EMaxC= 1.00D-01 BMatC= 1.85D-03 BMatP= 1.46D-02
 IDIUse=3 WtCom= 9.79D-01 WtEn= 2.10D-02
 Coeff-Com: -0.718D-01 0.142D+00 0.350D+00 0.579D+00
 Coeff-En:   0.000D+00 0.000D+00 0.000D+00 0.100D+01
 Coeff:     -0.703D-01 0.139D+00 0.343D+00 0.588D+00
 Gap=     0.252 Goal=   None    Shift=    0.000
 RMSDP=1.75D-04 MaxDP=1.04D-02 DE=-1.36D-02 OVMax= 1.30D-02

 Cycle   5  Pass 1  IDiag  1:
 RMSU=  1.07D-04    CP:  9.89D-01  1.35D+00  9.10D-01  7.46D-01
 E= -1028.80973730429     Delta-E=       -0.001950945202 Rises=F Damp=F
 DIIS: error= 4.39D-04 at cycle   5 NSaved=   5.
 NSaved= 5 IEnMin= 5 EnMin= -1028.80973730429     IErMin= 5 ErrMin= 4.39D-04
 ErrMax= 4.39D-04  0.00D+00 EMaxC= 1.00D-01 BMatC= 5.52D-05 BMatP= 1.85D-03
 IDIUse=3 WtCom= 9.96D-01 WtEn= 4.39D-03
 Coeff-Com: -0.265D-02-0.807D-03 0.381D-01 0.162D+00 0.803D+00
 Coeff-En:   0.000D+00 0.000D+00 0.000D+00 0.000D+00 0.100D+01
 Coeff:     -0.264D-02-0.804D-03 0.380D-01 0.161D+00 0.804D+00
 Gap=     0.252 Goal=   None    Shift=    0.000
 RMSDP=5.24D-05 MaxDP=1.71D-03 DE=-1.95D-03 OVMax= 4.97D-03

 Cycle   6  Pass 1  IDiag  1:
 RMSU=  3.38D-05    CP:  9.89D-01  1.36D+00  9.28D-01  8.24D-01  1.08D+00
 E= -1028.80985154329     Delta-E=       -0.000114238994 Rises=F Damp=F
 DIIS: error= 1.99D-04 at cycle   6 NSaved=   6.
 NSaved= 6 IEnMin= 6 EnMin= -1028.80985154329     IErMin= 6 ErrMin= 1.99D-04
 ErrMax= 1.99D-04  0.00D+00 EMaxC= 1.00D-01 BMatC= 1.09D-05 BMatP= 5.52D-05
 IDIUse=3 WtCom= 9.98D-01 WtEn= 1.99D-03
 Coeff-Com:  0.146D-01-0.305D-01-0.568D-01-0.575D-01 0.243D+00 0.887D+00
 Coeff-En:   0.000D+00 0.000D+00 0.000D+00 0.000D+00 0.000D+00 0.100D+01
 Coeff:      0.146D-01-0.304D-01-0.566D-01-0.574D-01 0.242D+00 0.888D+00
 Gap=     0.253 Goal=   None    Shift=    0.000
 RMSDP=3.05D-05 MaxDP=1.49D-03 DE=-1.14D-04 OVMax= 3.25D-03

 Cycle   7  Pass 1  IDiag  1:
 RMSU=  1.59D-05    CP:  9.89D-01  1.36D+00  9.38D-01  8.53D-01  1.24D+00
                    CP:  1.25D+00
 E= -1028.80988108246     Delta-E=       -0.000029539176 Rises=F Damp=F
 DIIS: error= 1.39D-04 at cycle   7 NSaved=   7.
 NSaved= 7 IEnMin= 7 EnMin= -1028.80988108246     IErMin= 7 ErrMin= 1.39D-04
 ErrMax= 1.39D-04  0.00D+00 EMaxC= 1.00D-01 BMatC= 2.41D-06 BMatP= 1.09D-05
 IDIUse=3 WtCom= 9.99D-01 WtEn= 1.39D-03
 Coeff-Com:  0.686D-02-0.131D-01-0.302D-01-0.493D-01-0.938D-02 0.393D+00
 Coeff-Com:  0.702D+00
 Coeff-En:   0.000D+00 0.000D+00 0.000D+00 0.000D+00 0.000D+00 0.000D+00
 Coeff-En:   0.100D+01
 Coeff:      0.685D-02-0.131D-01-0.302D-01-0.492D-01-0.936D-02 0.392D+00
 Coeff:      0.703D+00
 Gap=     0.253 Goal=   None    Shift=    0.000
 RMSDP=1.14D-05 MaxDP=4.99D-04 DE=-2.95D-05 OVMax= 1.40D-03

 Cycle   8  Pass 1  IDiag  1:
 RMSU=  6.83D-06    CP:  9.89D-01  1.36D+00  9.40D-01  8.60D-01  1.28D+00
                    CP:  1.45D+00  1.13D+00
 E= -1028.80988637969     Delta-E=       -0.000005297227 Rises=F Damp=F
 DIIS: error= 4.77D-05 at cycle   8 NSaved=   8.
 NSaved= 8 IEnMin= 8 EnMin= -1028.80988637969     IErMin= 8 ErrMin= 4.77D-05
 ErrMax= 4.77D-05  0.00D+00 EMaxC= 1.00D-01 BMatC= 3.35D-07 BMatP= 2.41D-06
 IDIUse=1 WtCom= 1.00D+00 WtEn= 0.00D+00
 Coeff-Com: -0.126D-02 0.280D-02 0.457D-02 0.130D-02-0.399D-01-0.839D-01
 Coeff-Com:  0.195D+00 0.921D+00
 Coeff:     -0.126D-02 0.280D-02 0.457D-02 0.130D-02-0.399D-01-0.839D-01
 Coeff:      0.195D+00 0.921D+00
 Gap=     0.253 Goal=   None    Shift=    0.000
 RMSDP=5.98D-06 MaxDP=1.72D-04 DE=-5.30D-06 OVMax= 9.22D-04

 Cycle   9  Pass 1  IDiag  1:
 RMSU=  2.62D-06    CP:  9.89D-01  1.36D+00  9.40D-01  8.59D-01  1.29D+00
                    CP:  1.54D+00  1.38D+00  1.23D+00
 E= -1028.80988755064     Delta-E=       -0.000001170947 Rises=F Damp=F
 DIIS: error= 2.15D-05 at cycle   9 NSaved=   9.
 NSaved= 9 IEnMin= 9 EnMin= -1028.80988755064     IErMin= 9 ErrMin= 2.15D-05
 ErrMax= 2.15D-05  0.00D+00 EMaxC= 1.00D-01 BMatC= 5.46D-08 BMatP= 3.35D-07
 IDIUse=1 WtCom= 1.00D+00 WtEn= 0.00D+00
 Coeff-Com: -0.118D-02 0.234D-02 0.513D-02 0.684D-02-0.946D-02-0.854D-01
 Coeff-Com: -0.366D-01 0.259D+00 0.860D+00
 Coeff:     -0.118D-02 0.234D-02 0.513D-02 0.684D-02-0.946D-02-0.854D-01
 Coeff:     -0.366D-01 0.259D+00 0.860D+00
 Gap=     0.253 Goal=   None    Shift=    0.000
 RMSDP=2.80D-06 MaxDP=7.24D-05 DE=-1.17D-06 OVMax= 4.86D-04

 Cycle  10  Pass 1  IDiag  1:
 RMSU=  1.26D-06    CP:  9.89D-01  1.36D+00  9.40D-01  8.59D-01  1.30D+00
                    CP:  1.58D+00  1.47D+00  1.42D+00  1.26D+00
 E= -1028.80988780156     Delta-E=       -0.000000250924 Rises=F Damp=F
 DIIS: error= 9.90D-06 at cycle  10 NSaved=  10.
 NSaved=10 IEnMin=10 EnMin= -1028.80988780156     IErMin=10 ErrMin= 9.90D-06
 ErrMax= 9.90D-06  0.00D+00 EMaxC= 1.00D-01 BMatC= 1.90D-08 BMatP= 5.46D-08
 IDIUse=1 WtCom= 1.00D+00 WtEn= 0.00D+00
 Coeff-Com: -0.145D-03 0.224D-03 0.958D-03 0.244D-02 0.561D-02-0.175D-01
 Coeff-Com: -0.557D-01-0.124D+00 0.363D+00 0.825D+00
 Coeff:     -0.145D-03 0.224D-03 0.958D-03 0.244D-02 0.561D-02-0.175D-01
 Coeff:     -0.557D-01-0.124D+00 0.363D+00 0.825D+00
 Gap=     0.253 Goal=   None    Shift=    0.000
 RMSDP=1.60D-06 MaxDP=3.70D-05 DE=-2.51D-07 OVMax= 2.59D-04

 Cycle  11  Pass 1  IDiag  1:
 RMSU=  5.85D-07    CP:  9.89D-01  1.36D+00  9.40D-01  8.60D-01  1.30D+00
                    CP:  1.60D+00  1.51D+00  1.52D+00  1.62D+00  1.17D+00
 E= -1028.80988787016     Delta-E=       -0.000000068595 Rises=F Damp=F
 DIIS: error= 4.98D-06 at cycle  11 NSaved=  11.
 NSaved=11 IEnMin=11 EnMin= -1028.80988787016     IErMin=11 ErrMin= 4.98D-06
 ErrMax= 4.98D-06  0.00D+00 EMaxC= 1.00D-01 BMatC= 2.56D-09 BMatP= 1.90D-08
 IDIUse=1 WtCom= 1.00D+00 WtEn= 0.00D+00
 Coeff-Com:  0.263D-03-0.543D-03-0.962D-03-0.912D-03 0.476D-02 0.123D-01
 Coeff-Com: -0.704D-02-0.960D-01-0.393D-01 0.230D+00 0.897D+00
 Coeff:      0.263D-03-0.543D-03-0.962D-03-0.912D-03 0.476D-02 0.123D-01
 Coeff:     -0.704D-02-0.960D-01-0.393D-01 0.230D+00 0.897D+00
 Gap=     0.253 Goal=   None    Shift=    0.000
 RMSDP=6.49D-07 MaxDP=2.05D-05 DE=-6.86D-08 OVMax= 1.25D-04

 Cycle  12  Pass 1  IDiag  1:
 RMSU=  2.29D-07    CP:  9.89D-01  1.36D+00  9.40D-01  8.60D-01  1.30D+00
                    CP:  1.60D+00  1.53D+00  1.55D+00  1.76D+00  1.43D+00
                    CP:  1.14D+00
 E= -1028.80988788231     Delta-E=       -0.000000012150 Rises=F Damp=F
 DIIS: error= 1.21D-06 at cycle  12 NSaved=  12.
 NSaved=12 IEnMin=12 EnMin= -1028.80988788231     IErMin=12 ErrMin= 1.21D-06
 ErrMax= 1.21D-06  0.00D+00 EMaxC= 1.00D-01 BMatC= 7.91D-10 BMatP= 2.56D-09
 IDIUse=1 WtCom= 1.00D+00 WtEn= 0.00D+00
 Coeff-Com:  0.132D-03-0.259D-03-0.562D-03-0.884D-03 0.111D-02 0.853D-02
 Coeff-Com:  0.867D-02-0.181D-01-0.926D-01-0.107D+00 0.370D+00 0.831D+00
 Coeff:      0.132D-03-0.259D-03-0.562D-03-0.884D-03 0.111D-02 0.853D-02
 Coeff:      0.867D-02-0.181D-01-0.926D-01-0.107D+00 0.370D+00 0.831D+00
 Gap=     0.253 Goal=   None    Shift=    0.000
 RMSDP=3.45D-07 MaxDP=8.03D-06 DE=-1.22D-08 OVMax= 5.39D-05

 Cycle  13  Pass 1  IDiag  1:
 RMSU=  9.22D-08    CP:  9.89D-01  1.36D+00  9.40D-01  8.60D-01  1.30D+00
                    CP:  1.60D+00  1.53D+00  1.56D+00  1.84D+00  1.54D+00
                    CP:  1.41D+00  1.09D+00
 E= -1028.80988788471     Delta-E=       -0.000000002401 Rises=F Damp=F
 DIIS: error= 5.95D-07 at cycle  13 NSaved=  13.
 NSaved=13 IEnMin=13 EnMin= -1028.80988788471     IErMin=13 ErrMin= 5.95D-07
 ErrMax= 5.95D-07  0.00D+00 EMaxC= 1.00D-01 BMatC= 5.81D-11 BMatP= 7.91D-10
 IDIUse=1 WtCom= 1.00D+00 WtEn= 0.00D+00
 Coeff-Com:  0.456D-05-0.551D-05-0.389D-04-0.164D-03-0.188D-03 0.101D-02
 Coeff-Com:  0.356D-02 0.713D-02-0.194D-01-0.658D-01-0.148D-02 0.246D+00
 Coeff-Com:  0.829D+00
 Coeff:      0.456D-05-0.551D-05-0.389D-04-0.164D-03-0.188D-03 0.101D-02
 Coeff:      0.356D-02 0.713D-02-0.194D-01-0.658D-01-0.148D-02 0.246D+00
 Coeff:      0.829D+00
 Gap=     0.253 Goal=   None    Shift=    0.000
 RMSDP=7.63D-08 MaxDP=2.12D-06 DE=-2.40D-09 OVMax= 1.10D-05

 Cycle  14  Pass 1  IDiag  1:
 RMSU=  3.74D-08    CP:  9.89D-01  1.36D+00  9.40D-01  8.60D-01  1.30D+00
                    CP:  1.60D+00  1.53D+00  1.56D+00  1.85D+00  1.57D+00
                    CP:  1.46D+00  1.24D+00  1.04D+00
 E= -1028.80988788485     Delta-E=       -0.000000000143 Rises=F Damp=F
 DIIS: error= 1.92D-07 at cycle  14 NSaved=  14.
 NSaved=14 IEnMin=14 EnMin= -1028.80988788485     IErMin=14 ErrMin= 1.92D-07
 ErrMax= 1.92D-07  0.00D+00 EMaxC= 1.00D-01 BMatC= 1.43D-11 BMatP= 5.81D-11
 IDIUse=1 WtCom= 1.00D+00 WtEn= 0.00D+00
 Coeff-Com: -0.132D-04 0.275D-04 0.482D-04 0.257D-04-0.201D-03-0.471D-03
 Coeff-Com:  0.674D-03 0.543D-02 0.196D-02-0.184D-01-0.430D-01 0.962D-02
 Coeff-Com:  0.385D+00 0.659D+00
 Coeff:     -0.132D-04 0.275D-04 0.482D-04 0.257D-04-0.201D-03-0.471D-03
 Coeff:      0.674D-03 0.543D-02 0.196D-02-0.184D-01-0.430D-01 0.962D-02
 Coeff:      0.385D+00 0.659D+00
 Gap=     0.253 Goal=   None    Shift=    0.000
 RMSDP=2.31D-08 MaxDP=6.18D-07 DE=-1.43D-10 OVMax= 2.08D-06

 Cycle  15  Pass 1  IDiag  1:
 RMSU=  1.36D-08    CP:  9.89D-01  1.36D+00  9.40D-01  8.60D-01  1.30D+00
                    CP:  1.60D+00  1.53D+00  1.57D+00  1.86D+00  1.57D+00
                    CP:  1.48D+00  1.27D+00  1.17D+00  9.18D-01
 E= -1028.80988788487     Delta-E=       -0.000000000024 Rises=F Damp=F
 DIIS: error= 7.67D-08 at cycle  15 NSaved=  15.
 NSaved=15 IEnMin=15 EnMin= -1028.80988788487     IErMin=15 ErrMin= 7.67D-08
 ErrMax= 7.67D-08  0.00D+00 EMaxC= 1.00D-01 BMatC= 9.29D-13 BMatP= 1.43D-11
 IDIUse=1 WtCom= 1.00D+00 WtEn= 0.00D+00
 Coeff-Com: -0.394D-05 0.744D-05 0.194D-04 0.337D-04-0.235D-04-0.328D-03
 Coeff-Com: -0.535D-03-0.708D-06 0.409D-02 0.748D-02-0.866D-02-0.422D-01
 Coeff-Com: -0.394D-01 0.146D+00 0.934D+00
 Coeff:     -0.394D-05 0.744D-05 0.194D-04 0.337D-04-0.235D-04-0.328D-03
 Coeff:     -0.535D-03-0.708D-06 0.409D-02 0.748D-02-0.866D-02-0.422D-01
 Coeff:     -0.394D-01 0.146D+00 0.934D+00
 Gap=     0.253 Goal=   None    Shift=    0.000
 RMSDP=9.23D-09 MaxDP=2.05D-07 DE=-2.36D-11 OVMax= 9.91D-07

 Error on total polarization charges =  0.00854
 SCF Done:  E(RwB97XD) =  -1028.80988788     A.U. after   15 cycles
            NFock= 15  Conv=0.92D-08     -V/T= 2.0050
 KE= 1.023718071050D+03 PE=-4.610804264833D+03 EE= 1.458901130488D+03
 Leave Link  502 at Tue Oct 27 22:50:43 2020, MaxMem=  7784628224 cpu:             830.0 elap:              84.4
 (Enter /gpfs/loomis/apps/avx/software/Gaussian/16-C.01_AVX/g16/l601.exe)
 Copying SCF densities to generalized density rwf, IOpCl= 0 IROHF=0.

 **********************************************************************

            Population analysis using the SCF Density.

 **********************************************************************

 Alpha  occ. eigenvalues --  -89.09888 -19.23758 -14.49911 -10.40917 -10.36855
 Alpha  occ. eigenvalues --  -10.36658 -10.35648 -10.32858 -10.32343 -10.32044
 Alpha  occ. eigenvalues --  -10.31963 -10.31882 -10.31416 -10.31397 -10.29735
 Alpha  occ. eigenvalues --  -10.29276  -8.11895  -6.06751  -6.06399  -6.05935
 Alpha  occ. eigenvalues --   -1.13253  -1.09740  -0.97529  -0.95450  -0.92820
 Alpha  occ. eigenvalues --   -0.88985  -0.85949  -0.83773  -0.82042  -0.75909
 Alpha  occ. eigenvalues --   -0.71578  -0.71316  -0.68510  -0.67936  -0.63990
 Alpha  occ. eigenvalues --   -0.60882  -0.59386  -0.57519  -0.55359  -0.54944
 Alpha  occ. eigenvalues --   -0.54425  -0.53538  -0.52828  -0.50872  -0.49913
 Alpha  occ. eigenvalues --   -0.49348  -0.47478  -0.46507  -0.45403  -0.45086
 Alpha  occ. eigenvalues --   -0.44144  -0.43170  -0.42020  -0.40714  -0.36624
 Alpha  occ. eigenvalues --   -0.34375  -0.32935  -0.31262  -0.27147
 Alpha virt. eigenvalues --   -0.01819   0.04317   0.06345   0.06848   0.08335
 Alpha virt. eigenvalues --    0.10609   0.14027   0.14893   0.16380   0.17727
 Alpha virt. eigenvalues --    0.18799   0.20678   0.21438   0.21868   0.22747
 Alpha virt. eigenvalues --    0.23661   0.23914   0.24941   0.28200   0.29458
 Alpha virt. eigenvalues --    0.31983   0.33373   0.35318   0.35773   0.36817
 Alpha virt. eigenvalues --    0.38392   0.39001   0.40476   0.42124   0.43170
 Alpha virt. eigenvalues --    0.46935   0.47826   0.50411   0.51264   0.51567
 Alpha virt. eigenvalues --    0.52518   0.53103   0.53514   0.54470   0.55069
 Alpha virt. eigenvalues --    0.56148   0.56336   0.56590   0.57025   0.58158
 Alpha virt. eigenvalues --    0.58287   0.58448   0.58978   0.59493   0.60122
 Alpha virt. eigenvalues --    0.60646   0.60953   0.62095   0.62563   0.63001
 Alpha virt. eigenvalues --    0.65241   0.65486   0.66848   0.67656   0.68866
 Alpha virt. eigenvalues --    0.70513   0.70722   0.72135   0.72602   0.72641
 Alpha virt. eigenvalues --    0.73022   0.74773   0.75179   0.76074   0.77753
 Alpha virt. eigenvalues --    0.79051   0.79212   0.80149   0.81547   0.82207
 Alpha virt. eigenvalues --    0.83408   0.88503   0.89246   0.90820   0.93108
 Alpha virt. eigenvalues --    0.94518   0.94832   0.96056   0.96424   0.97112
 Alpha virt. eigenvalues --    0.98618   0.98749   1.00159   1.00440   1.01534
 Alpha virt. eigenvalues --    1.02608   1.05314   1.06282   1.06694   1.07457
 Alpha virt. eigenvalues --    1.08166   1.09008   1.10213   1.11004   1.11523
 Alpha virt. eigenvalues --    1.12410   1.12976   1.13064   1.14988   1.15223
 Alpha virt. eigenvalues --    1.16150   1.19523   1.20045   1.23026   1.23195
 Alpha virt. eigenvalues --    1.26131   1.28232   1.33351   1.33978   1.34641
 Alpha virt. eigenvalues --    1.34790   1.37105   1.38353   1.40884   1.46961
 Alpha virt. eigenvalues --    1.49155   1.49855   1.51439   1.53799   1.55021
 Alpha virt. eigenvalues --    1.56775   1.56886   1.57291   1.58856   1.59428
 Alpha virt. eigenvalues --    1.59860   1.60393   1.65122   1.66792   1.67247
 Alpha virt. eigenvalues --    1.68480   1.69709   1.70171   1.70216   1.71196
 Alpha virt. eigenvalues --    1.71914   1.72445   1.73454   1.73572   1.75427
 Alpha virt. eigenvalues --    1.77356   1.79966   1.80576   1.81031   1.83130
 Alpha virt. eigenvalues --    1.83161   1.84199   1.84827   1.84993   1.85251
 Alpha virt. eigenvalues --    1.86901   1.88739   1.89289   1.90417   1.92259
 Alpha virt. eigenvalues --    1.92418   1.93392   1.93644   1.95538   1.96258
 Alpha virt. eigenvalues --    1.97427   2.00273   2.00746   2.02647   2.04063
 Alpha virt. eigenvalues --    2.05091   2.07757   2.09572   2.10738   2.14104
 Alpha virt. eigenvalues --    2.15524   2.15843   2.17167   2.21005   2.24057
 Alpha virt. eigenvalues --    2.26924   2.29358   2.31161   2.38360   2.40831
 Alpha virt. eigenvalues --    2.40952   2.42727   2.43619   2.46148   2.47034
 Alpha virt. eigenvalues --    2.48449   2.50722   2.52529   2.53198   2.62012
 Alpha virt. eigenvalues --    2.62487   2.71394   2.73989   2.74956   2.79936
 Alpha virt. eigenvalues --    2.81781   2.83951   2.85736   2.89559   2.89960
 Alpha virt. eigenvalues --    2.92613   3.02744   3.11721   3.20766   3.39985
 Alpha virt. eigenvalues --    3.47258   3.57032   3.61862   3.83002
          Condensed to atoms (all electrons):
               1          2          3          4          5          6
     1  C    4.724916   0.485736   0.004898  -0.051170  -0.013554   0.520324
     2  C    0.485736   5.313830   0.328336  -0.045944  -0.067049  -0.009224
     3  C    0.004898   0.328336   4.812114   0.507335  -0.003818  -0.064056
     4  C   -0.051170  -0.045944   0.507335   4.771044   0.522547  -0.013529
     5  C   -0.013554  -0.067049  -0.003818   0.522547   4.725185   0.496173
     6  C    0.520324  -0.009224  -0.064056  -0.013529   0.496173   4.736530
     7  H    0.403106  -0.039054   0.008753  -0.000561   0.008134  -0.039089
     8  H   -0.000664   0.011144  -0.029308   0.394093  -0.042067   0.007589
     9  H    0.008818  -0.000515   0.008468  -0.038436   0.405020  -0.044748
    10  H   -0.042279   0.009540  -0.000506   0.008561  -0.043026   0.406854
    11  N    0.005158  -0.048952   0.399309  -0.042763   0.002896   0.000185
    12  S   -0.066717   0.334995  -0.114471   0.005617   0.000260   0.003816
    13  C   -0.000197   0.002275   0.009914  -0.000610   0.000009   0.000002
    14  C   -0.000006   0.000113   0.000230   0.000006  -0.000000  -0.000000
    15  C    0.000003  -0.000358   0.000732   0.000062  -0.000000   0.000000
    16  C    0.000000  -0.000003   0.000004  -0.000000   0.000000   0.000000
    17  H   -0.000006   0.000112   0.000001   0.000000   0.000000   0.000000
    18  C    0.000000   0.000007  -0.000020  -0.000000  -0.000000  -0.000000
    19  C   -0.000000   0.000000   0.000001   0.000000   0.000000   0.000000
    20  H   -0.000000  -0.000000  -0.000000   0.000000   0.000000  -0.000000
    21  H   -0.000000   0.000000   0.000000  -0.000000  -0.000000   0.000000
    22  H    0.000000  -0.000000  -0.000000  -0.000000   0.000000  -0.000000
    23  C    0.003679  -0.048624  -0.114460   0.001206   0.000261  -0.000189
    24  O    0.000002  -0.000123  -0.001193  -0.000049  -0.000000  -0.000000
    25  H    0.000028   0.005553  -0.020361  -0.002320  -0.000054   0.000004
               7          8          9         10         11         12
     1  C    0.403106  -0.000664   0.008818  -0.042279   0.005158  -0.066717
     2  C   -0.039054   0.011144  -0.000515   0.009540  -0.048952   0.334995
     3  C    0.008753  -0.029308   0.008468  -0.000506   0.399309  -0.114471
     4  C   -0.000561   0.394093  -0.038436   0.008561  -0.042763   0.005617
     5  C    0.008134  -0.042067   0.405020  -0.043026   0.002896   0.000260
     6  C   -0.039089   0.007589  -0.044748   0.406854   0.000185   0.003816
     7  H    0.655089   0.000031  -0.000149  -0.011657  -0.000098  -0.007252
     8  H    0.000031   0.647795  -0.012230  -0.000118  -0.002947  -0.000214
     9  H   -0.000149  -0.012230   0.662072  -0.012275  -0.000109   0.000022
    10  H   -0.011657  -0.000118  -0.012275   0.660864   0.000003  -0.000150
    11  N   -0.000098  -0.002947  -0.000109   0.000003   6.356904  -0.059464
    12  S   -0.007252  -0.000214   0.000022  -0.000150  -0.059464  15.448138
    13  C    0.000004   0.000040  -0.000000  -0.000000  -0.024475  -0.063153
    14  C    0.000001   0.000001   0.000000  -0.000000   0.003237  -0.008453
    15  C   -0.000000  -0.000008   0.000000   0.000000  -0.008698   0.004259
    16  C    0.000000  -0.000000  -0.000000   0.000000  -0.000088   0.000062
    17  H    0.000001   0.000000  -0.000000  -0.000000   0.000237   0.007473
    18  C   -0.000000  -0.000000   0.000000  -0.000000  -0.000595  -0.000148
    19  C    0.000000   0.000000  -0.000000  -0.000000   0.000048   0.000024
    20  H    0.000000  -0.000000   0.000000   0.000000   0.000001   0.000003
    21  H   -0.000000   0.000000  -0.000000   0.000000   0.000021   0.000004
    22  H    0.000000  -0.000000  -0.000000  -0.000000  -0.000000  -0.000001
    23  C    0.000143  -0.000746   0.000006   0.000005   0.529990   0.324323
    24  O   -0.000000  -0.000210   0.000000  -0.000000  -0.080429  -0.000311
    25  H    0.000003   0.001030  -0.000007  -0.000000   0.236437   0.003169
              13         14         15         16         17         18
     1  C   -0.000197  -0.000006   0.000003   0.000000  -0.000006   0.000000
     2  C    0.002275   0.000113  -0.000358  -0.000003   0.000112   0.000007
     3  C    0.009914   0.000230   0.000732   0.000004   0.000001  -0.000020
     4  C   -0.000610   0.000006   0.000062  -0.000000   0.000000  -0.000000
     5  C    0.000009  -0.000000  -0.000000   0.000000   0.000000  -0.000000
     6  C    0.000002  -0.000000   0.000000   0.000000   0.000000  -0.000000
     7  H    0.000004   0.000001  -0.000000   0.000000   0.000001  -0.000000
     8  H    0.000040   0.000001  -0.000008  -0.000000   0.000000  -0.000000
     9  H   -0.000000   0.000000   0.000000  -0.000000  -0.000000   0.000000
    10  H   -0.000000  -0.000000   0.000000   0.000000  -0.000000  -0.000000
    11  N   -0.024475   0.003237  -0.008698  -0.000088   0.000237  -0.000595
    12  S   -0.063153  -0.008453   0.004259   0.000062   0.007473  -0.000148
    13  C    5.370151   0.455294   0.232965  -0.007198  -0.039596  -0.040737
    14  C    0.455294   4.827344   0.004257   0.535310   0.398965  -0.057266
    15  C    0.232965   0.004257   4.750317  -0.058035   0.006843   0.492017
    16  C   -0.007198   0.535310  -0.058035   4.754850  -0.032920  -0.019670
    17  H   -0.039596   0.398965   0.006843  -0.032920   0.674275  -0.000741
    18  C   -0.040737  -0.057266   0.492017  -0.019670  -0.000741   4.835469
    19  C   -0.052323  -0.018770  -0.009242   0.486455   0.008262   0.512779
    20  H    0.009012  -0.035984  -0.000176   0.400747  -0.012379   0.008275
    21  H    0.014304  -0.000595  -0.023159   0.007476   0.000049   0.374956
    22  H   -0.001389   0.009545   0.008958  -0.045397  -0.000180  -0.040711
    23  C    0.353073  -0.092078  -0.078359   0.006679  -0.020793   0.008002
    24  O   -0.087588   0.005421   0.575662  -0.000059  -0.000067  -0.060820
    25  H   -0.024684  -0.000628  -0.024805   0.000017  -0.000038   0.003680
              19         20         21         22         23         24
     1  C   -0.000000  -0.000000  -0.000000   0.000000   0.003679   0.000002
     2  C    0.000000  -0.000000   0.000000  -0.000000  -0.048624  -0.000123
     3  C    0.000001  -0.000000   0.000000  -0.000000  -0.114460  -0.001193
     4  C    0.000000   0.000000  -0.000000  -0.000000   0.001206  -0.000049
     5  C    0.000000   0.000000  -0.000000   0.000000   0.000261  -0.000000
     6  C    0.000000  -0.000000   0.000000  -0.000000  -0.000189  -0.000000
     7  H    0.000000   0.000000  -0.000000   0.000000   0.000143  -0.000000
     8  H    0.000000  -0.000000   0.000000  -0.000000  -0.000746  -0.000210
     9  H   -0.000000   0.000000  -0.000000  -0.000000   0.000006   0.000000
    10  H   -0.000000   0.000000   0.000000  -0.000000   0.000005  -0.000000
    11  N    0.000048   0.000001   0.000021  -0.000000   0.529990  -0.080429
    12  S    0.000024   0.000003   0.000004  -0.000001   0.324323  -0.000311
    13  C   -0.052323   0.009012   0.014304  -0.001389   0.353073  -0.087588
    14  C   -0.018770  -0.035984  -0.000595   0.009545  -0.092078   0.005421
    15  C   -0.009242  -0.000176  -0.023159   0.008958  -0.078359   0.575662
    16  C    0.486455   0.400747   0.007476  -0.045397   0.006679  -0.000059
    17  H    0.008262  -0.012379   0.000049  -0.000180  -0.020793  -0.000067
    18  C    0.512779   0.008275   0.374956  -0.040711   0.008002  -0.060820
    19  C    4.728223  -0.047058  -0.046352   0.404614   0.000594   0.003645
    20  H   -0.047058   0.684825  -0.000159  -0.012342  -0.000383   0.000002
    21  H   -0.046352  -0.000159   0.672762  -0.012497  -0.000437   0.004322
    22  H    0.404614  -0.012342  -0.012497   0.670879   0.000004  -0.000073
    23  C    0.000594  -0.000383  -0.000437   0.000004   5.069880  -0.008076
    24  O    0.003645   0.000002   0.004322  -0.000073  -0.008076   7.823971
    25  H   -0.000318  -0.000001   0.000009   0.000009   0.000812   0.198634
              25
     1  C    0.000028
     2  C    0.005553
     3  C   -0.020361
     4  C   -0.002320
     5  C   -0.000054
     6  C    0.000004
     7  H    0.000003
     8  H    0.001030
     9  H   -0.000007
    10  H   -0.000000
    11  N    0.236437
    12  S    0.003169
    13  C   -0.024684
    14  C   -0.000628
    15  C   -0.024805
    16  C    0.000017
    17  H   -0.000038
    18  C    0.003680
    19  C   -0.000318
    20  H   -0.000001
    21  H    0.000009
    22  H    0.000009
    23  C    0.000812
    24  O    0.198634
    25  H    0.410655
 Mulliken charges:
               1
     1  C    0.017924
     2  C   -0.231796
     3  C    0.268094
     4  C   -0.015089
     5  C    0.009084
     6  C   -0.000643
     7  H    0.022595
     8  H    0.026787
     9  H    0.024062
    10  H    0.024183
    11  N   -0.265811
    12  S    0.188171
    13  C   -0.105092
    14  C   -0.025942
    15  C    0.126764
    16  C   -0.028229
    17  H    0.010501
    18  C   -0.014476
    19  C    0.029417
    20  H    0.005617
    21  H    0.009295
    22  H    0.018582
    23  C    0.065487
    24  O   -0.372661
    25  H    0.213177
 Sum of Mulliken charges =  -0.00000
 Mulliken charges with hydrogens summed into heavy atoms:
               1
     1  C    0.040518
     2  C   -0.231796
     3  C    0.268094
     4  C    0.011698
     5  C    0.033146
     6  C    0.023540
    11  N   -0.052634
    12  S    0.188171
    13  C   -0.105092
    14  C   -0.015441
    15  C    0.126764
    16  C   -0.022612
    18  C   -0.005181
    19  C    0.047999
    23  C    0.065487
    24  O   -0.372661
 Electronic spatial extent (au):  <R**2>=           4336.1564
 Charge=             -0.0000 electrons
 Dipole moment (field-independent basis, Debye):
    X=              0.6749    Y=             -4.1655    Z=             -0.0000  Tot=              4.2198
 Quadrupole moment (field-independent basis, Debye-Ang):
   XX=            -83.0083   YY=            -92.4688   ZZ=           -104.2338
   XY=             -6.9123   XZ=             -0.0001   YZ=              0.0000
 Traceless Quadrupole moment (field-independent basis, Debye-Ang):
   XX=             10.2287   YY=              0.7682   ZZ=            -10.9968
   XY=             -6.9123   XZ=             -0.0001   YZ=              0.0000
 Octapole moment (field-independent basis, Debye-Ang**2):
  XXX=             23.7983  YYY=            -41.7564  ZZZ=             -0.0000  XYY=             -2.4501
  XXY=             -3.9521  XXZ=              0.0000  XZZ=              1.7193  YZZ=              2.3684
  YYZ=              0.0001  XYZ=             -0.0005
 Hexadecapole moment (field-independent basis, Debye-Ang**3):
 XXXX=          -2604.1666 YYYY=          -2634.8136 ZZZZ=           -113.1807 XXXY=            809.9491
 XXXZ=              0.0097 YYYX=            768.8513 YYYZ=             -0.0135 ZZZX=              0.0135
 ZZZY=             -0.0179 XXYY=           -845.5469 XXZZ=           -571.8939 YYZZ=           -547.3054
 XXYZ=             -0.0035 YYXZ=              0.0012 ZZXY=            357.9355
 N-N= 1.099375175410D+03 E-N=-4.610804264706D+03  KE= 1.023718071050D+03
 No NMR shielding tensors so no spin-rotation constants.
 Leave Link  601 at Tue Oct 27 22:50:44 2020, MaxMem=  7784628224 cpu:               3.0 elap:               0.5
 (Enter /gpfs/loomis/apps/avx/software/Gaussian/16-C.01_AVX/g16/l701.exe)
 ... and contract with generalized density number  0.
 Compute integral first derivatives.
 R6Disp: Adding Grimme-D2 dispersion energy 1st derivatives to the gradient.
 D1PCM: PCM CHGder 1st derivatives, ID1Alg=3 FixD1E=F DoIter=F DoCFld=F I1PDM=0.
 GePol: Maximum number of non-zero 1st derivatives   =     260
 Leave Link  701 at Tue Oct 27 22:50:47 2020, MaxMem=  7784628224 cpu:              22.2 elap:               2.8
 (Enter /gpfs/loomis/apps/avx/software/Gaussian/16-C.01_AVX/g16/l702.exe)
 L702 exits ... SP integral derivatives will be done elsewhere.
 Leave Link  702 at Tue Oct 27 22:50:47 2020, MaxMem=  7784628224 cpu:               0.2 elap:               0.1
 (Enter /gpfs/loomis/apps/avx/software/Gaussian/16-C.01_AVX/g16/l703.exe)
 Integral derivatives from FoFJK, PRISM(SPDF).
 Compute integral first derivatives, UseDBF=F ICtDFT=           0.
 Calling FoFJK, ICntrl=      2127 FMM=F ISym2X=0 I1Cent= 0 IOpClX= 0 NMat=1 NMatS=1 NMatT=0.
 FoFJK:  IHMeth= 1 ICntrl=    2127 DoSepK=T KAlg= 0 I1Cent=           0 FoldK=F
 IRaf=         1 NMat=       1 IRICut=       1 DoRegI=T DoRafI=F ISym2E= 0 IDoP0=0 IntGTp=1.
 FoFCou: FMM=F IPFlag=           0 FMFlag=      100000 FMFlg1=         800
         NFxFlg=           0 DoJE=F BraDBF=F KetDBF=F FulRan=T
         wScrn=  0.000000 ICntrl=      2527 IOpCl=  0 I1Cent=           0 NGrid=           0
         NMat0=    1 NMatS0=      1 NMatT0=    0 NMatD0=    1 NMtDS0=    0 NMtDT0=    0
 Symmetry not used in FoFCou.
 Leave Link  703 at Tue Oct 27 22:51:01 2020, MaxMem=  7784628224 cpu:             136.5 elap:              14.3
 (Enter /gpfs/loomis/apps/avx/software/Gaussian/16-C.01_AVX/g16/l716.exe)
 Dipole        = 2.65526091D-01-1.63884475D+00-1.90446680D-05
 -------------------------------------------------------------------
 Center     Atomic                   Forces (Hartrees/Bohr)
 Number     Number              X              Y              Z
 -------------------------------------------------------------------
      1        6           0.003374923   -0.001294446   -0.000000031
      2        6           0.006312965    0.008426174   -0.000000153
      3        6           0.012734602   -0.025102944   -0.000000264
      4        6          -0.007744242    0.002493757    0.000000044
      5        6           0.000529638   -0.002084645    0.000000044
      6        6          -0.001854460    0.003345399   -0.000000059
      7        1           0.000358589    0.000171502   -0.000000036
      8        1          -0.000185160   -0.000177383    0.000000008
      9        1          -0.000377071    0.000154313   -0.000000000
     10        1          -0.000131390    0.000287053    0.000000006
     11        7          -0.046642469   -0.000128818    0.000000967
     12       16           0.005251120    0.008460389   -0.000000007
     13        6           0.001234571    0.032030046    0.000000122
     14        6          -0.016837527    0.016397382    0.000000004
     15        6           0.001224953   -0.024692799   -0.000000272
     16        6           0.002181167   -0.018681125   -0.000000266
     17        1          -0.001289362   -0.000501760   -0.000000027
     18        6          -0.013582725   -0.001519017    0.000000430
     19        6           0.019862676   -0.003647210   -0.000000110
     20        1           0.000411711   -0.000146421    0.000000013
     21        1          -0.000235505   -0.000151279   -0.000000138
     22        1          -0.000272473    0.000709315   -0.000000023
     23        6           0.024358771   -0.002731286    0.000000309
     24        8           0.011422716   -0.004040055   -0.000000716
     25        1          -0.000106014    0.012423856    0.000000157
 -------------------------------------------------------------------
 Cartesian Forces:  Max     0.046642469 RMS     0.009879971
 Leave Link  716 at Tue Oct 27 22:51:01 2020, MaxMem=  7784628224 cpu:               0.4 elap:               0.1
 (Enter /gpfs/loomis/apps/avx/software/Gaussian/16-C.01_AVX/g16/l103.exe)

 GradGradGradGradGradGradGradGradGradGradGradGradGradGradGradGradGradGrad
 Berny optimization.
 FormGI is forming the generalized inverse of G from B-inverse, IUseBI=4.
 Internal  Forces:  Max     0.029158875 RMS     0.005856066
 Search for a local minimum.
 Step number   1 out of a maximum of  146
 All quantities printed in internal units (Hartrees-Bohrs-Radians)
 RMS Force = .58996D-02 SwitMx=.10000D-02 MixMth= 1
 Mixed Optimization -- RFO/linear search
 Second derivative matrix not updated -- first step.
 ITU=  0
     Eigenvalues ---    0.01392   0.01525   0.01564   0.01722   0.01771
     Eigenvalues ---    0.01831   0.01862   0.01991   0.02012   0.02023
     Eigenvalues ---    0.02034   0.02035   0.02055   0.02069   0.02073
     Eigenvalues ---    0.02094   0.02098   0.02118   0.02144   0.02170
     Eigenvalues ---    0.02185   0.02194   0.16000   0.16000   0.16000
     Eigenvalues ---    0.16000   0.16000   0.16000   0.16000   0.16003
     Eigenvalues ---    0.16844   0.22003   0.22011   0.22523   0.22580
     Eigenvalues ---    0.24011   0.24452   0.24552   0.24992   0.25000
     Eigenvalues ---    0.25000   0.28852   0.29533   0.33596   0.34594
     Eigenvalues ---    0.34627   0.34653   0.34699   0.34708   0.34715
     Eigenvalues ---    0.34720   0.34765   0.36659   0.39949   0.41525
     Eigenvalues ---    0.42493   0.42729   0.43304   0.43867   0.44706
     Eigenvalues ---    0.45207   0.46126   0.46408   0.47282   0.49081
     Eigenvalues ---    0.51261   0.696351000.000001000.000001000.00000
     Eigenvalues --- 1000.000001000.000001000.000001000.000001000.00000
     Eigenvalues --- 1000.000001000.000001000.000001000.000001000.00000
     Eigenvalues --- 1000.000001000.000001000.000001000.000001000.00000
     Eigenvalues --- 1000.000001000.000001000.000001000.000001000.00000
     Eigenvalues --- 1000.000001000.000001000.000001000.000001000.00000
     Eigenvalues --- 1000.000001000.000001000.000001000.000001000.00000
     Eigenvalues --- 1000.000001000.000001000.000001000.000001000.00000
     Eigenvalues --- 1000.000001000.000001000.000001000.000001000.00000
     Eigenvalues --- 1000.000001000.000001000.000001000.000001000.00000
     Eigenvalues --- 1000.000001000.000001000.000001000.000001000.00000
     Eigenvalues --- 1000.000001000.000001000.000001000.000001000.00000
     Eigenvalues --- 1000.000001000.000001000.000001000.000001000.00000
     Eigenvalues --- 1000.000001000.000001000.000001000.000001000.00000
     Eigenvalues --- 1000.00000
 RFO step:  Lambda=-1.23772280D-02 EMin= 1.39165283D-02
 Linear search not attempted -- first point.
 Iteration  1 RMS(Cart)=  0.04037974 RMS(Int)=  0.00044738
 Iteration  2 RMS(Cart)=  0.00052924 RMS(Int)=  0.00016672
 Iteration  3 RMS(Cart)=  0.00000037 RMS(Int)=  0.00016667
 Iteration  1 RMS(Cart)=  0.00000036 RMS(Int)=  0.00000012
 ITry= 1 IFail=0 DXMaxC= 2.07D-01 DCOld= 1.00D+10 DXMaxT= 3.00D-01 DXLimC= 3.00D+00 Rises=F
 Variable       Old X    -DE/DX   Delta X   Delta X   Delta X     New X
                                 (Linear)    (Quad)   (Total)
    R1        2.63074  -0.00122   0.00000  -0.00256  -0.00244   2.62830
    R2        2.63295  -0.00530   0.00000  -0.01105  -0.01098   2.62198
    R3        2.06166  -0.00031   0.00000  -0.00081  -0.00080   2.06086
    R4        2.69087  -0.01307   0.00000  -0.02688  -0.02657   2.66430
    R5        3.31251  -0.00373   0.00000  -0.01186  -0.01187   3.30065
    R6        2.66142  -0.00547   0.00000  -0.01203  -0.01209   2.64933
    R7        2.57511   0.02236   0.00000   0.04298   0.04291   2.61802
    R8        2.62410   0.00290   0.00000   0.00618   0.00607   2.63017
    R9        2.06131  -0.00029   0.00000  -0.00082  -0.00082   2.06049
   R10        2.65497  -0.00257   0.00000  -0.00490  -0.00482   2.65014
   R11        2.06285  -0.00041   0.00000  -0.00114  -0.00114   2.06171
   R12        2.06140  -0.00028   0.00000  -0.00076  -0.00076   2.06064
   R13        2.57069  -0.02912   0.00000  -0.05547  -0.05570   2.51499
   R14        2.25991   0.00984   0.00000   0.04372   0.04457   2.30448
   R15        3.32123  -0.01326   0.00000  -0.04405  -0.04360   3.27763
   R16        2.64474   0.00519   0.00000   0.01138   0.01178   2.65653
   R17        2.79430  -0.02916   0.00000  -0.08004  -0.07975   2.71454
   R18        2.67806  -0.00619   0.00000  -0.01482  -0.01499   2.66307
   R19        2.65276  -0.02495   0.00000  -0.05504  -0.05501   2.59775
   R20        2.06339   0.00097   0.00000   0.00271   0.00272   2.06611
   R21        2.67763   0.00191   0.00000   0.00371   0.00329   2.68092
   R22        2.42949   0.00930   0.00000   0.01359   0.01388   2.44337
   R23        2.65687   0.00131   0.00000   0.00322   0.00325   2.66012
   R24        2.06242  -0.00032   0.00000  -0.00092  -0.00093   2.06149
   R25        2.63624  -0.00695   0.00000  -0.01483  -0.01524   2.62100
   R26        2.06151  -0.00028   0.00000  -0.00078  -0.00077   2.06074
   R27        2.06057   0.00070   0.00000   0.00190   0.00190   2.06247
    A1        2.06481  -0.00133   0.00000  -0.00561  -0.00565   2.05916
    A2        2.10632   0.00062   0.00000   0.00267   0.00271   2.10903
    A3        2.11205   0.00072   0.00000   0.00294   0.00294   2.11499
    A4        2.12891   0.00424   0.00000   0.01395   0.01392   2.14283
    A5        2.22241  -0.00132   0.00000  -0.00774  -0.00762   2.21479
    A6        1.93186  -0.00292   0.00000  -0.00621  -0.00629   1.92557
    A7        2.07307  -0.00046   0.00000  -0.00490  -0.00489   2.06818
    A8        1.98387  -0.00475   0.00000  -0.01127  -0.01105   1.97282
    A9        2.22624   0.00521   0.00000   0.01617   0.01594   2.24218
   A10        2.07416  -0.00061   0.00000  -0.00050  -0.00049   2.07367
   A11        2.09151   0.00051   0.00000   0.00132   0.00130   2.09281
   A12        2.11751   0.00010   0.00000  -0.00082  -0.00081   2.11670
   A13        2.12444  -0.00062   0.00000   0.00021   0.00021   2.12465
   A14        2.07785   0.00044   0.00000   0.00062   0.00061   2.07847
   A15        2.08089   0.00018   0.00000  -0.00083  -0.00082   2.08007
   A16        2.10098  -0.00121   0.00000  -0.00315  -0.00310   2.09788
   A17        2.08919   0.00037   0.00000   0.00019   0.00017   2.08936
   A18        2.09302   0.00084   0.00000   0.00296   0.00293   2.09595
   A19        1.96925   0.00074   0.00000  -0.00097  -0.00134   1.96790
   A20        2.51597  -0.00109   0.00000  -0.00044   0.00003   2.51601
   A21        1.79797   0.00035   0.00000   0.00142   0.00131   1.79927
   A22        1.55505   0.00348   0.00000   0.00872   0.00868   1.56373
   A23        2.07061   0.01511   0.00000   0.05704   0.05732   2.12793
   A24        2.16758  -0.00097   0.00000  -0.00595  -0.00601   2.16157
   A25        2.04500  -0.01414   0.00000  -0.05109  -0.05131   1.99369
   A26        2.10273  -0.00099   0.00000  -0.00491  -0.00456   2.09817
   A27        2.09385   0.00133   0.00000   0.00739   0.00723   2.10108
   A28        2.08660  -0.00035   0.00000  -0.00248  -0.00267   2.08394
   A29        2.07415  -0.01220   0.00000  -0.04587  -0.04586   2.02829
   A30        2.08164  -0.00069   0.00000  -0.00037  -0.00004   2.08160
   A31        2.12739   0.01288   0.00000   0.04624   0.04590   2.17329
   A32        2.11774  -0.00969   0.00000  -0.04177  -0.04164   2.07610
   A33        2.07682   0.00437   0.00000   0.01811   0.01805   2.09486
   A34        2.08862   0.00532   0.00000   0.02366   0.02360   2.11222
   A35        2.10727  -0.00012   0.00000   0.00037  -0.00011   2.10716
   A36        2.04726   0.00046   0.00000   0.00209   0.00232   2.04957
   A37        2.12866  -0.00035   0.00000  -0.00246  -0.00220   2.12646
   A38        2.09387   0.00788   0.00000   0.03515   0.03486   2.12872
   A39        2.09247  -0.00396   0.00000  -0.01754  -0.01738   2.07509
   A40        2.09684  -0.00392   0.00000  -0.01760  -0.01748   2.07937
   A41        1.98475   0.00346   0.00000   0.00973   0.01001   1.99476
   A42        2.11972  -0.00329   0.00000  -0.00892  -0.00932   2.11040
   A43        2.17871  -0.00017   0.00000  -0.00082  -0.00068   2.17803
    D1        0.00000  -0.00000   0.00000  -0.00000  -0.00000  -0.00000
    D2       -3.14159   0.00000   0.00000   0.00000   0.00000  -3.14159
    D3        3.14159   0.00000   0.00000   0.00000   0.00000   3.14159
    D4       -0.00000   0.00000   0.00000   0.00000   0.00000  -0.00000
    D5       -0.00000  -0.00000   0.00000  -0.00000  -0.00000  -0.00000
    D6        3.14159  -0.00000   0.00000  -0.00000  -0.00000   3.14159
    D7        3.14159  -0.00000   0.00000  -0.00000  -0.00000   3.14159
    D8        0.00000  -0.00000   0.00000  -0.00000  -0.00000   0.00000
    D9        0.00000   0.00000   0.00000   0.00000   0.00000   0.00000
   D10        3.14159   0.00000   0.00000   0.00000   0.00000  -3.14159
   D11       -3.14159   0.00000   0.00000   0.00000   0.00000  -3.14159
   D12       -0.00000   0.00000   0.00000   0.00000   0.00000  -0.00000
   D13        3.14159   0.00000   0.00000   0.00000   0.00000   3.14159
   D14       -0.00000   0.00000   0.00000   0.00000   0.00000  -0.00000
   D15       -0.00000  -0.00000   0.00000  -0.00000  -0.00000  -0.00000
   D16        3.14159  -0.00000   0.00000  -0.00000  -0.00000   3.14159
   D17       -3.14159  -0.00000   0.00000  -0.00000  -0.00000   3.14159
   D18        0.00000  -0.00000   0.00000  -0.00000  -0.00000   0.00000
   D19        0.00001  -0.00000   0.00000  -0.00000  -0.00000   0.00000
   D20        3.14154   0.00000   0.00000   0.00000   0.00000   3.14155
   D21       -3.14159  -0.00000   0.00000  -0.00000  -0.00000  -3.14159
   D22       -0.00005   0.00000   0.00000   0.00000   0.00000  -0.00005
   D23        0.00000   0.00000   0.00000   0.00000   0.00000   0.00000
   D24       -3.14159   0.00000   0.00000   0.00000   0.00000  -3.14159
   D25        3.14159  -0.00000   0.00000  -0.00000  -0.00000   3.14159
   D26        0.00000  -0.00000   0.00000  -0.00000  -0.00000   0.00000
   D27        0.00000   0.00000   0.00000   0.00000   0.00000   0.00000
   D28       -3.14159   0.00000   0.00000   0.00000   0.00000  -3.14159
   D29       -3.14159   0.00000   0.00000   0.00000   0.00000  -3.14159
   D30        0.00000   0.00000   0.00000   0.00000   0.00000   0.00000
   D31       -0.00001   0.00000   0.00000   0.00000   0.00000  -0.00000
   D32        3.14157   0.00000   0.00000   0.00001   0.00001   3.14158
   D33       -3.14157   0.00000   0.00000  -0.00000  -0.00000  -3.14157
   D34        0.00001   0.00000   0.00000   0.00000   0.00000   0.00002
   D35        0.00001  -0.00000   0.00000  -0.00000  -0.00000   0.00000
   D36       -3.14157  -0.00000   0.00000  -0.00001  -0.00001  -3.14158
   D37        0.00001  -0.00000   0.00000  -0.00000  -0.00000   0.00000
   D38       -3.14159   0.00000   0.00000   0.00000   0.00000  -3.14159
   D39       -3.14159  -0.00000   0.00000  -0.00000  -0.00000  -3.14159
   D40        0.00000   0.00000   0.00000   0.00000   0.00000   0.00000
   D41       -0.00001  -0.00000   0.00000  -0.00000  -0.00000  -0.00001
   D42        3.14158   0.00000   0.00000   0.00001   0.00001   3.14159
   D43        3.14159  -0.00000   0.00000  -0.00000  -0.00000   3.14159
   D44       -0.00001   0.00000   0.00000   0.00001   0.00001   0.00000
   D45        3.14159   0.00000   0.00000   0.00001   0.00001  -3.14159
[...]
 0810,0.00000001,0.00029735,0.00059780,-0.00000005,-0.00194053,0.002212
 76,0.00000211,-0.00442392,-0.02854792,-0.00000970,-0.08876925,-0.08691
 626,-0.00000883,-0.00492275,0.00214494,0.00000422,0.01123003,0.0201202
 0,0.00000126,0.09019999,0.00005429,-0.00003984,0.00000008,-0.00021175,
 0.00061405,0.00000042,0.00035406,-0.00017181,0.00000005,0.00004057,0.0
 0007841,-0.00000003,0.00001179,0.00007948,0.00000001,-0.00010135,-0.00
 000335,-0.00000004,-0.00001306,0.00001473,0.00000002,0.00002580,-0.000
 00684,0.00000002,-0.00000534,0.00000534,0.,0.00000124,0.00000286,-0.00
 000003,-0.00085275,0.00021168,-0.00000009,0.00070405,-0.00047029,-0.00
 000195,0.00045013,-0.00225698,-0.00000054,-0.08479432,-0.30955220,-0.0
 0003328,0.00021586,0.00227626,0.00000088,-0.01210295,-0.01641874,-0.00
 000246,0.09098422,0.32864684,0.00000013,-0.00000026,-0.00001427,-0.000
 00015,0.00000031,-0.00065630,0.00000014,-0.00000026,0.00022520,0.00000
 017,0.,0.00008875,0.00000002,0.00000028,-0.00002540,-0.00000032,0.,0.0
 0003022,0.00000001,0.00000001,-0.00001255,0.,-0.00000001,-0.00001793,-
 0.00000003,0.00000001,-0.00000519,-0.00000002,0.00000001,0.00002060,-0
 .00000181,-0.00000100,-0.00019802,0.00000151,-0.00000046,0.00119382,-0
 .00001174,-0.00000389,0.00295569,0.00000041,-0.00003657,-0.03754438,-0
 .00000529,0.00000776,0.00598575,-0.00000669,0.00000755,0.00523858,0.00
 001341,0.00003739,0.02459593,-0.00015302,0.00095502,0.00000020,0.00089
 720,-0.00003020,-0.00000006,0.00269832,0.00021867,-0.00000035,-0.00092
 012,0.00012417,0.00000005,-0.00003982,-0.00105480,-0.00000006,0.000970
 36,0.00010582,0.00000011,-0.00008325,0.00004259,-0.00000004,0.00010992
 ,0.00000273,-0.00000002,0.00004585,-0.00002538,-0.00000003,0.00004905,
 -0.00000150,0.,0.00417377,0.01393773,-0.00000404,-0.00056663,-0.000594
 96,-0.00000078,0.05553984,0.02094668,0.00000441,-0.06038881,0.02451066
 ,-0.00000102,-0.16441980,0.04824309,-0.00007641,-0.00371499,-0.0855788
 1,0.00001756,-0.00063468,0.00041949,0.00000647,0.71338412,0.00065056,-
 0.00058241,0.00000020,-0.00138708,-0.00001469,-0.00000051,-0.00059808,
 -0.00003500,-0.00000089,0.00067389,-0.00011373,0.,0.00008526,0.0008340
 7,0.00000010,-0.00081140,-0.00017950,-0.00000006,0.00001377,0.00002819
 ,-0.00000004,-0.00001340,-0.00001100,-0.00000004,-0.00003301,0.0000274
 0,0.00000001,-0.00000131,0.00000342,-0.00000001,-0.00251922,-0.0025735
 0,0.00000344,0.00193415,0.00006747,0.00000010,0.00046092,-0.03218234,0
 .00001944,0.01823708,-0.00952501,-0.00000260,0.09474909,-0.23707116,0.
 00012250,-0.03653518,0.01469389,-0.00000808,0.00018103,0.00052268,-0.0
 0000052,0.06258654,0.71143645,0.00000029,-0.00000041,-0.00009909,-0.00
 000091,0.00000095,-0.00017164,0.00000053,-0.00000053,-0.00116485,0.000
 00021,-0.00000002,0.00004915,0.00000017,0.00000041,0.00003514,-0.00000
 052,0.00000009,0.00003813,0.00000004,0.00000004,-0.00005470,0.,-0.0000
 0001,-0.00004251,-0.00000004,0.00000002,-0.00000951,0.,0.00000001,0.00
 003415,-0.00000140,0.00000281,0.00226171,-0.00000078,-0.00000226,-0.00
 060580,0.00000753,-0.00000657,0.00883054,-0.00002209,0.00000500,-0.002
 53805,-0.00009483,0.00012988,-0.07220438,0.00001554,-0.00001951,0.0078
 2002,-0.00000006,-0.00000014,-0.00062930,0.00008264,-0.00026712,0.1242
 5689,0.00071498,-0.00120849,0.00000007,-0.00172604,0.00062091,-0.00000
 016,-0.00116697,-0.00033014,-0.00000023,0.00115677,-0.00017359,-0.0000
 0002,0.00006645,0.00146558,0.00000007,-0.00146875,-0.00016773,-0.00000
 016,0.00007065,0.00003076,0.00000005,-0.00005803,-0.00003766,0.,-0.000
 09054,0.00005772,0.00000003,-0.00006261,0.00002793,-0.00000002,-0.0056
 2470,-0.00655575,0.00000263,0.00193361,0.00142783,0.00000161,-0.041722
 56,-0.01076995,-0.00001535,0.06239398,-0.00395545,0.00000383,-0.054678
 22,0.05232505,0.00001278,-0.15135701,-0.02946045,-0.00000508,-0.002533
 18,0.00442826,-0.00000141,-0.37114572,-0.08541547,-0.00003243,0.727757
 27,0.00041430,-0.00073078,-0.00000006,-0.00083750,0.00043759,-0.000000
 30,-0.00054199,-0.00094080,0.,0.00047747,-0.00000952,0.00000002,0.0000
 4286,0.00076059,0.00000003,-0.00084562,-0.00004748,-0.00000007,0.00004
 956,0.00000303,0.00000003,-0.00003329,-0.00001647,0.,-0.00005391,0.000
 03398,0.00000001,-0.00003453,0.00001551,0.,-0.00617534,-0.00607373,0.0
 0000177,0.00127177,0.00101716,0.00000139,-0.04082174,-0.01725910,-0.00
 001412,0.05166159,-0.05895332,0.00001554,0.00361753,0.06019711,-0.0000
 1026,-0.10326022,-0.30304153,0.00005657,0.00332146,-0.00208925,-0.0000
 0390,-0.01479585,-0.14369743,0.00004248,-0.02919410,0.70639791,0.,0.00
 000007,0.00000214,-0.00000004,-0.00000001,0.00006755,0.00000011,0.0000
 0034,0.00028917,0.00000002,-0.00000003,0.00000202,-0.00000001,-0.00000
 003,-0.00002235,0.00000005,-0.00000002,0.00000159,-0.00000001,0.,0.000
 00526,0.00000002,0.,0.00001696,0.,0.,-0.00000186,0.,0.,-0.00000832,0.0
 0000094,0.00000148,-0.00045828,-0.00000015,0.00000015,-0.00002754,0.00
 000812,0.00000678,-0.00417953,-0.00000509,0.00000382,0.00708804,-0.000
 02143,-0.00001638,-0.00098073,0.00001720,0.00007011,-0.06319614,-0.000
 00093,-0.00000190,0.00772008,-0.00005936,0.00002025,-0.05910302,0.0001
 0578,-0.00016482,0.14494344,0.00001703,-0.00007935,0.,-0.00005362,0.00
 012935,0.00000003,-0.00003790,-0.00009020,0.00000004,0.00005481,0.0000
 2879,0.,-0.00001073,0.00007187,0.,-0.00008496,0.00000785,0.,0.00000522
 ,0.00000700,0.,0.00000047,-0.00000573,0.,-0.00001055,0.00000783,0.,-0.
 00000945,0.00000577,0.,-0.00044742,0.00034422,0.00000009,0.00004314,0.
 00006639,0.00000006,-0.00011843,0.00380223,-0.00000069,-0.01436170,-0.
 00768973,-0.00000208,0.00048707,0.00015223,0.00000063,-0.33897710,-0.0
 5309004,-0.00003162,0.00075606,0.00008105,0.00000072,0.00148522,-0.001
 70080,0.00000015,-0.00548770,0.00249229,-0.00000238,0.35682053,0.00000
 001,0.00002670,0.,0.00002646,-0.00006182,0.,0.00009572,0.00007082,-0.0
 0000005,-0.00001723,-0.00003905,0.,0.00001234,-0.00001877,0.,0.0000254
 2,-0.00000416,0.,-0.00000081,-0.00000283,0.,0.00000127,0.00000160,0.,0
 .00000388,-0.00000464,0.,0.00000308,-0.00000140,0.,0.00035998,-0.00015
 556,-0.00000013,0.00000399,0.00004779,0.00000001,0.00240517,-0.0034187
 4,0.00000045,0.02474019,0.00795591,0.00000274,0.00050193,-0.00145610,-
 0.00000002,-0.05389038,-0.06770954,-0.00000128,-0.00034032,0.00094240,
 -0.00000007,-0.00057920,-0.00502315,0.00000278,-0.02965710,-0.00032671
 ,-0.00000500,0.05670968,0.06738242,-0.00000003,-0.00000004,-0.00000203
 ,0.00000006,0.00000002,-0.00004226,-0.00000010,-0.00000010,-0.00024924
 ,0.00000001,0.00000005,-0.00001595,-0.00000002,0.00000002,0.00002294,-
 0.00000003,0.00000002,-0.00000468,0.,0.,0.00000023,0.,0.,-0.00000890,0
 .,0.,0.00000521,0.,0.,0.00000462,-0.00000041,0.00000005,-0.00023695,0.
 00000011,-0.00000003,0.00008705,0.00000178,0.00000087,0.00748548,-0.00
 000367,0.00000056,0.00132800,0.00000033,0.00000104,-0.00072467,-0.0000
 4069,-0.00000337,-0.03199946,0.00000100,0.00000075,-0.00473161,0.00000
 257,0.00000255,0.00574814,0.00000376,-0.00000164,0.00107111,0.00003500
 ,0.00000155,0.02444904,-0.00006409,-0.00000251,-0.00000005,0.00007071,
 0.00007990,0.00000005,-0.00007342,-0.00002882,0.00000006,-0.00001614,0
 .00000728,0.,-0.00000797,-0.00002623,0.,0.00002655,0.00001556,0.,0.000
 00239,-0.00000542,0.,-0.00000611,0.00000198,0.,0.00000134,-0.00000098,
 0.,-0.00000363,-0.00000132,0.,0.00029366,-0.00044781,0.00000015,-0.000
 28503,0.00009799,0.,-0.00230995,0.00278636,-0.00000338,-0.00137319,0.0
 0051269,0.00000044,0.01018753,0.02067222,-0.00000523,-0.00503848,-0.00
 000661,-0.00000315,0.00010661,-0.00008573,0.00000038,-0.08650956,-0.08
 773991,0.00002262,-0.00439741,-0.02956226,0.00001304,-0.00040058,-0.00
 139671,-0.00000035,0.08667217,0.00002977,0.00010092,0.00000005,-0.0000
 5070,-0.00015090,-0.00000011,0.00009082,0.00011573,0.00000001,-0.00005
 295,-0.00001320,0.,0.00001256,-0.00006987,0.,0.00007726,-0.00001883,0.
 00000002,-0.00000752,0.00000138,0.,0.00000751,0.00000387,0.,0.00001022
 ,-0.00000565,0.,0.00001254,-0.00000413,0.,0.00014342,0.00050923,0.0000
 0020,0.00020316,-0.00031561,-0.00000023,0.00391832,-0.00248542,0.00000
 750,0.00104486,0.00038238,-0.00000124,-0.01332646,-0.01714798,-0.00000
 002,-0.00065707,0.00211119,0.00000556,-0.00006591,-0.00008225,-0.00000
 075,-0.08735981,-0.31697634,0.00013256,0.00188272,-0.00121858,-0.00000
 011,0.00006101,-0.00015404,0.00000048,0.09540968,0.33321213,-0.0000000
 1,-0.00000014,0.00002587,0.,0.00000026,-0.00000561,-0.00000002,-0.0000
 0014,-0.00002413,0.00000006,0.00000002,0.00000145,0.,0.00000010,-0.000
 00217,-0.00000012,0.00000002,-0.00000039,0.,0.,0.00000233,0.,-0.000000
 01,0.00000302,-0.00000001,0.,0.00000251,-0.00000002,0.,-0.00000440,-0.
 00000045,-0.00000054,0.00002048,-0.00000024,0.00000051,-0.00000645,-0.
 00000642,0.00000319,0.00525035,0.00000014,-0.00000173,-0.00080082,0.00
 000993,0.00002657,0.00458777,-0.00000151,0.00000299,0.00802326,0.00000
 024,0.00000031,-0.00089214,0.00003529,0.00011382,-0.03431059,-0.000005
 98,-0.00000464,0.00233592,-0.00000032,-0.00000004,0.00050617,-0.000027
 38,-0.00013742,0.02433623,0.00002759,-0.00004678,0.,-0.00003990,0.0001
 2315,0.,0.00011881,-0.00007769,-0.00000017,0.00002969,0.00000952,0.000
 00001,-0.00000223,0.00005096,0.,-0.00006129,0.00000379,0.,0.00000161,0
 .00000502,0.,0.00000352,-0.00000423,0.,-0.00000785,0.00000486,0.,-0.00
 000537,0.00000430,0.,-0.00021416,0.00039830,0.00000014,0.00002495,0.00
 021460,0.00000008,-0.00081635,-0.00036593,0.00000019,0.00084989,-0.002
 64344,-0.00000131,-0.00394378,-0.00308628,0.00000331,0.00974560,-0.009
 33632,0.00000381,0.00036202,-0.00049588,-0.00000023,-0.01396190,0.0251
 1013,-0.00001741,-0.17925114,0.13974207,-0.00006032,0.00064984,0.00039
 907,0.00000112,0.00101522,-0.00021799,-0.00000005,0.18656073,0.0000225
 5,0.00001954,0.,-0.00007369,0.00001330,-0.00000009,0.00000583,0.000041
 27,0.00000004,-0.00000146,-0.00000436,0.,0.00000870,-0.00000544,0.,0.0
 0000960,-0.00001246,0.,-0.00000468,-0.00000161,0.,0.00000268,0.0000023
 1,0.,0.00000503,-0.00000214,0.,0.00000605,-0.00000335,0.,0.00012536,-0
 .00011747,-0.00000004,-0.00005509,0.00000086,0.00000012,-0.00091419,0.
 00037480,-0.00000032,-0.00327932,-0.00487647,0.00000316,-0.00253775,0.
 00077712,0.00000293,0.02200365,-0.01513602,0.00000909,0.00104912,-0.00
 107968,-0.00000095,-0.00649189,0.00727082,-0.00000445,0.14014060,-0.22
 263820,0.00008017,-0.00019273,0.00102324,-0.00000111,0.00016333,0.0007
 7456,-0.00000186,-0.15023472,0.23302847,-0.00000024,0.00000036,-0.0000
 2036,0.00000069,-0.00000035,-0.00006880,0.00000032,0.00000003,0.000192
 13,-0.00000034,0.00000005,0.00000362,-0.00000004,-0.00000043,-0.000007
 61,0.00000044,0.00000005,-0.00000197,-0.00000002,-0.00000001,0.0000061
 8,0.,0.00000001,0.00000115,0.00000002,-0.00000002,0.00000014,0.0000000
 1,0.,0.00000612,0.00000139,0.00000133,-0.00033997,-0.00000012,-0.00000
 005,0.00024383,0.00000710,-0.00000006,-0.00109438,-0.00000329,0.000006
 10,0.00605956,0.00000428,-0.00000715,0.00941708,-0.00000879,-0.0000041
 2,0.00476083,-0.00000089,0.00000115,-0.00024362,-0.00001495,0.00000915
 ,0.00532746,-0.00004996,0.00008274,-0.04121045,0.00000082,-0.00000105,
 -0.00336730,0.00000166,-0.00000392,-0.00508704,0.00007128,-0.00008587,
 0.02687549,-0.00586292,-0.00388584,-0.00000182,-0.00136219,0.01870129,
 0.00000580,-0.08040151,0.04622715,0.00000863,0.01279296,-0.00395905,-0
 .00000054,-0.00324890,0.00639968,-0.00000025,-0.00222652,-0.00427518,-
 0.00000028,0.00017742,-0.00098655,0.00000025,-0.00048144,-0.00013531,-
 0.00000010,0.00033404,-0.00006198,-0.00000005,-0.00069731,-0.00007143,
 0.00000010,-0.40747622,-0.05084121,0.00000732,-0.05302186,-0.03972416,
 -0.00002000,-0.16324781,0.07700726,0.00001750,-0.05084994,0.03303731,0
 .00000016,0.04476345,0.01547143,-0.00001700,0.00086008,-0.02218374,0.0
 0000221,0.00108818,0.00137547,0.00000437,-0.00968862,0.00194840,-0.000
 00227,0.01041089,0.00909208,-0.00000155,-0.00028424,0.00085670,0.00000
 012,0.00033969,-0.00138313,0.00000233,0.00040895,0.00001246,-0.0000023
 7,0.73994106,0.00242058,-0.00260392,-0.00000246,0.02721363,-0.02778926
 ,-0.00000712,0.01410440,0.01303160,-0.00000335,0.00778010,-0.00951601,
 -0.00000133,-0.00147353,0.00610397,0.00000008,-0.00372530,-0.00436989,
 0.00000030,0.00018293,-0.00074534,0.00000011,-0.00058016,0.00001974,-0
 .00000011,0.00019197,-0.00039103,0.00000015,-0.00042131,0.00008633,0.0
 0000031,-0.07517053,-0.14571957,0.00000854,-0.00475589,-0.16876599,-0.
 00003595,0.07218417,-0.19764309,-0.00005331,0.02297015,0.00619946,0.00
 001089,0.00517515,-0.03977972,0.00001141,-0.00890469,0.01730425,-0.000
 00577,-0.00225177,-0.00055530,-0.00000223,0.00465273,-0.00992685,-0.00
 000305,-0.01134567,-0.00907547,0.00000228,-0.00110358,0.00078712,-0.00
 000146,0.00130791,-0.00039922,0.00000030,-0.00044751,0.00012200,0.0000
 0264,-0.04408180,0.56816889,0.00000229,-0.00000353,0.00016935,-0.00000
 014,0.00000382,0.00416932,-0.00000414,0.00000359,0.00336550,0.00000426
 ,-0.00000308,0.00256033,-0.00000039,0.00000434,0.00082599,-0.00000412,
 -0.00000156,0.00098087,0.00000027,-0.00000023,-0.00051984,-0.00000011,
 -0.00000002,-0.00038040,-0.00000006,0.00000003,-0.00044431,-0.00000029
 ,0.00000003,-0.00008105,0.00001014,-0.00001333,-0.06674261,-0.00000462
 ,-0.00004203,-0.03590903,0.00001403,-0.00002669,-0.05483741,0.00000497
 ,-0.00000182,-0.00410625,0.00000978,-0.00002376,0.00391702,-0.00000152
 ,0.00000686,0.00638530,-0.00000090,-0.00000068,-0.00318559,-0.00000147
 ,-0.00000540,0.00424490,-0.00000500,-0.00000150,-0.00095180,-0.0000005
 2,0.00000005,0.00128223,0.00000107,-0.00000035,-0.00022665,0.00000005,
 -0.00000022,-0.00067483,-0.00002859,0.00009507,0.13788519,-0.00065005,
 0.00309105,0.00000031,0.00238159,0.00222439,0.00000183,0.01383737,-0.0
 0025153,0.00000216,-0.00290817,0.00071892,-0.00000020,-0.00017168,-0.0
 0318998,-0.00000022,0.00287352,0.00067368,0.00000027,-0.00027087,0.000
 28189,-0.00000001,0.00029305,-0.00004257,0.,0.00000355,0.00000538,-0.0
 0000005,0.00006750,0.00007201,-0.00000007,0.01685448,0.07293656,-0.000
 02125,-0.00102733,0.00021334,-0.00000360,-0.01883094,-0.05189885,0.000
 03692,-0.01170331,0.00348921,0.00000562,-0.40896275,-0.06428808,0.0002
 1498,-0.00466377,-0.01993945,0.00000668,-0.00137821,-0.00073348,-0.000
 00008,-0.07216157,0.01439353,0.00003871,0.01985447,0.01590412,0.000004
 67,-0.00010002,-0.00031701,-0.00000053,0.00205020,-0.00001238,-0.00000
 531,-0.00154535,0.00036389,-0.00000736,-0.04136895,0.02272173,0.000003
 19,0.53283498,-0.00079740,-0.00150655,-0.00000040,0.00062456,-0.004858
 44,-0.00000093,-0.01691417,-0.00496069,0.00000281,0.00039782,-0.000683
 69,-0.00000018,0.00062367,0.00104779,0.00000006,-0.00067694,-0.0002988
 3,-0.00000008,0.00026137,-0.00045957,0.00000005,0.00010965,0.00024590,
 0.00000008,0.00018771,-0.00016988,0.00000005,0.00009448,-0.00011554,0.
 ,0.02853156,-0.10151349,0.00001042,-0.00054200,-0.00413618,0.00000030,
 -0.05202883,-0.00209480,0.00002641,0.01196094,-0.00855276,0.00000329,-
 0.07173524,-0.12392227,0.00005263,-0.00194175,0.01172237,-0.00000139,-
 0.00151255,-0.00026461,-0.00000311,0.04808073,0.01629179,-0.00001686,-
 0.00670277,-0.01408561,0.00000618,-0.00004878,0.00056192,-0.00000068,-
 0.00258459,0.00250387,-0.00000183,0.00179202,0.00026757,0.00000328,0.0
 1747221,0.00117935,-0.00000087,0.06786713,0.25460641,0.00000076,-0.000
 00212,-0.00031858,-0.00000236,-0.00000127,-0.00025135,-0.00000807,0.00
 000236,0.00258866,0.00000265,-0.00000061,0.00008036,0.,0.00000255,-0.0
 0009466,-0.00000221,-0.00000065,0.00005282,0.00000014,-0.00000014,0.00
 002292,-0.00000023,0.,0.00003972,-0.00000003,0.00000002,-0.00000947,-0
 .00000007,-0.00000003,0.00000228,-0.00001299,-0.00003623,0.00882096,0.
 00000207,0.00000287,-0.00043849,-0.00001058,0.00001596,0.01633639,0.00
 001567,-0.00001108,0.00637502,0.00027608,0.00007503,-0.06235203,0.0000
 0500,0.00001737,-0.00085519,-0.00000017,-0.00000017,0.00011461,0.00001
 119,-0.00001212,0.01034232,-0.00001677,-0.00000111,0.00533302,0.000000
 07,0.00000003,-0.00068178,0.00000045,-0.00000205,-0.00351386,-0.000000
 65,-0.00000068,-0.00054379,0.00002823,-0.00001841,-0.00255787,-0.00028
 884,-0.00009895,0.05262220,0.00055373,-0.00071166,0.00000027,-0.003074
 12,0.00027966,-0.00000073,-0.00059136,0.00788204,-0.00000288,0.0013237
 8,-0.00031184,0.00000022,0.00006015,0.00080917,0.00000025,-0.00072756,
 -0.00022074,-0.00000012,0.00003027,0.00002110,0.,-0.00048025,-0.000090
 35,-0.00000017,0.00003989,-0.00003294,0.,-0.00000866,-0.00006769,0.,-0
 .04650447,-0.03100349,0.00002152,-0.00259229,-0.00421375,-0.00000119,-
 0.00320332,0.00750467,-0.00000183,0.00254861,0.00029265,0.00000096,-0.
 04590311,0.02001926,0.00002269,0.00044348,0.00374386,-0.00000132,0.000
 55955,0.00025034,0.00000003,0.00503484,-0.00426950,0.00000432,-0.00358
 850,-0.00193073,0.00000132,0.00006499,0.00005385,0.,-0.00028052,0.0002
 3006,-0.00000016,0.00005091,-0.00013332,0.00000036,0.00910170,-0.02664
 368,0.00000181,-0.02530774,-0.02251883,0.00000066,0.11244998,0.0004695
 6,0.00295257,0.00000085,0.00189974,0.00782511,0.00000331,0.02768341,-0
 .00164056,-0.00000296,-0.00243742,0.00225857,-0.00000011,-0.00093173,-
 0.00294911,-0.00000023,0.00190158,0.00109578,0.00000004,-0.00040323,0.
 00066977,0.00000001,0.00011912,-0.00040317,-0.00000002,-0.00031969,0.0
 0028935,-0.00000004,-0.00010715,0.00019409,-0.00000004,-0.01663617,-0.
 00827235,-0.00001858,0.00109890,0.00861181,0.00000138,0.00939398,-0.02
 354737,-0.00000413,-0.01199441,0.00008722,-0.00000434,0.07625935,0.027
 19857,-0.00005458,0.00022579,-0.01499758,0.00000466,-0.00120693,-0.000
 40359,0.00000063,-0.02831426,0.00673592,0.00000390,0.01256695,0.011341
 08,-0.00000333,0.00003338,-0.00042339,0.00000045,0.00083398,-0.0006732
 5,0.00000025,-0.00090103,0.00016133,-0.00000386,-0.05601208,0.00427795
 ,0.00001127,-0.06428349,-0.02080404,0.00006944,0.05106184,0.00041528,-
 0.00000072,-0.00000069,0.00066692,0.00000137,-0.00000156,0.00111075,-0
 .00000513,-0.00000421,-0.00390997,-0.00000049,-0.00000009,-0.00045866,
 0.00000022,-0.00000006,0.00002770,0.,0.00000015,-0.00011547,0.00000015
 ,-0.00000019,0.00003153,-0.00000034,0.00000024,0.00001888,0.00000006,-
 0.00000007,0.00003285,0.00000002,-0.00000004,-0.00001045,0.00001873,0.
 00001627,-0.02349784,-0.00000167,-0.00000359,0.00262088,0.00000541,0.0
 0000257,-0.00298739,-0.00000284,0.00000141,-0.00067433,0.00002047,-0.0
 0003335,0.00009575,0.00000092,-0.00000280,-0.00011297,-0.00000006,0.00
 000021,-0.00001296,-0.00000191,0.00000584,0.00194489,0.00000198,0.0000
 0183,0.00126372,0.,0.00000004,0.00007462,-0.00000037,-0.00000017,-0.00
 022112,0.00000016,0.00000006,-0.00023349,-0.00000220,0.00000246,0.0048
 3166,0.00001219,0.00001972,-0.03111423,-0.00004596,-0.00000400,0.05062
 870\\-0.00037663,0.00262025,0.00000540,0.00345974,0.00579556,0.0000141
 2,0.00714635,0.00022230,-0.00000205,0.00005616,0.00007172,-0.00000495,
 -0.00053485,-0.00345695,0.00000159,-0.00033073,-0.00020912,0.00000145,
 -0.00029052,0.00037857,-0.00000135,0.00031538,-0.00017640,0.00000036,-
 0.00004746,-0.00020608,0.00000019,-0.00016000,-0.00007798,-0.00000199,
 -0.00775548,0.00698558,-0.00000091,0.00291308,0.00949751,-0.00001849,-
 0.00479797,0.00366853,-0.00008806,0.00609936,-0.00144098,-0.00000916,0
 .00914760,0.00255297,0.00028762,-0.00191217,0.00335907,0.00001567,0.00
 027234,-0.00008041,-0.00000022,-0.00329327,0.00002768,-0.00007981,-0.0
 0448730,-0.00200415,-0.00002455,-0.00009306,-0.00013774,-0.00000302,-0
 .00031563,0.00002567,-0.00000183,-0.00044434,-0.00023316,0.00000915,-0
 .00456660,-0.00269159,0.00001515,-0.00549425,-0.00630203,-0.00009732,0
 .00549024,-0.01818883,-0.00001698\\\@
 The archive entry for this job was punched.


 THE LENGTH OF A MEETING IS PROPORTIONAL TO THE
 SQUARE OF THE PARTICIPANTS.
 Job cpu time:       0 days  1 hours  0 minutes 54.2 seconds.
 Elapsed time:       0 days  0 hours  6 minutes 14.2 seconds.
 File lengths (MBytes):  RWF=    544 Int=      0 D2E=      0 Chk=     36 Scr=      8
 Normal termination of Gaussian 16 at Tue Oct 27 23:10:53 2020.
