 Entering Gaussian System, Link 0=g16
 Initial command:
 /gpfs/loomis/apps/avx/software/Gaussian/16-C.01_AVX/g16/l1.exe "/home/fas/batista/pev4/scratch60/gauss-scratch/Gau-168669.inp" -scrdir="/home/fas/batista/pev4/scratch60/gauss-scratch/"
 Entering Link 1 = /gpfs/loomis/apps/avx/software/Gaussian/16-C.01_AVX/g16/l1.exe PID=    168670.
  
 Copyright (c) 1988-2019, Gaussian, Inc.  All Rights Reserved.
  
 This is part of the Gaussian(R) 16 program.  It is based on
 the Gaussian(R) 09 system (copyright 2009, Gaussian, Inc.),
 the Gaussian(R) 03 system (copyright 2003, Gaussian, Inc.),
 the Gaussian(R) 98 system (copyright 1998, Gaussian, Inc.),
 the Gaussian(R) 94 system (copyright 1995, Gaussian, Inc.),
 the Gaussian 92(TM) system (copyright 1992, Gaussian, Inc.),
 the Gaussian 90(TM) system (copyright 1990, Gaussian, Inc.),
 the Gaussian 88(TM) system (copyright 1988, Gaussian, Inc.),
 the Gaussian 86(TM) system (copyright 1986, Carnegie Mellon
 University), and the Gaussian 82(TM) system (copyright 1983,
 Carnegie Mellon University). Gaussian is a federally registered
 trademark of Gaussian, Inc.
  
 This software contains proprietary and confidential information,
 including trade secrets, belonging to Gaussian, Inc.
  
 This software is provided under written license and may be
 used, copied, transmitted, or stored only in accord with that
 written license.
  
 The following legend is applicable only to US Government
 contracts under FAR:
  
                    RESTRICTED RIGHTS LEGEND
  
 Use, reproduction and disclosure by the US Government is
 subject to restrictions as set forth in subparagraphs (a)
 and (c) of the Commercial Computer Software - Restricted
 Rights clause in FAR 52.227-19.
  
 Gaussian, Inc.
 340 Quinnipiac St., Bldg. 40, Wallingford CT 06492
  
  
 ---------------------------------------------------------------
 Warning -- This program may not be used in any manner that
 competes with the business of Gaussian, Inc. or will provide
 assistance to any competitor of Gaussian, Inc.  The licensee
 of this program is prohibited from giving any competitor of
 Gaussian, Inc. access to this program.  By using this program,
 the user acknowledges that Gaussian, Inc. is engaged in the
 business of creating and licensing software in the field of
 computational chemistry and represents and warrants to the
 licensee that it is not a competitor of Gaussian, Inc. and that
 it will not use this program in any manner prohibited above.
 ---------------------------------------------------------------
  

 Cite this work as:
 Gaussian 16, Revision C.01,
 M. J. Frisch, G. W. Trucks, H. B. Schlegel, G. E. Scuseria, 
 M. A. Robb, J. R. Cheeseman, G. Scalmani, V. Barone, 
 G. A. Petersson, H. Nakatsuji, X. Li, M. Caricato, A. V. Marenich, 
 J. Bloino, B. G. Janesko, R. Gomperts, B. Mennucci, H. P. Hratchian, 
 J. V. Ortiz, A. F. Izmaylov, J. L. Sonnenberg, D. Williams-Young, 
 F. Ding, F. Lipparini, F. Egidi, J. Goings, B. Peng, A. Petrone, 
 T. Henderson, D. Ranasinghe, V. G. Zakrzewski, J. Gao, N. Rega, 
 G. Zheng, W. Liang, M. Hada, M. Ehara, K. Toyota, R. Fukuda, 
 J. Hasegawa, M. Ishida, T. Nakajima, Y. Honda, O. Kitao, H. Nakai, 
 T. Vreven, K. Throssell, J. A. Montgomery, Jr., J. E. Peralta, 
 F. Ogliaro, M. J. Bearpark, J. J. Heyd, E. N. Brothers, K. N. Kudin, 
 V. N. Staroverov, T. A. Keith, R. Kobayashi, J. Normand, 
 K. Raghavachari, A. P. Rendell, J. C. Burant, S. S. Iyengar, 
 J. Tomasi, M. Cossi, J. M. Millam, M. Klene, C. Adamo, R. Cammi, 
 J. W. Ochterski, R. L. Martin, K. Morokuma, O. Farkas, 
 J. B. Foresman, and D. J. Fox, Gaussian, Inc., Wallingford CT, 2019.
 
 ******************************************
 Gaussian 16:  ES64L-G16RevC.01  3-Jul-2019
                27-Oct-2020 
 ******************************************
 %chk=config_6_6.chk
 %mem=58GB
 %nprocshared=10
 Will use up to   10 processors via shared memory.
 ----------------------------------------------------------------------
 #p opt=addgic freq wb97xd/cc-pvdz nosymm int=ultrafine scrf=(solvent=C
 arbonTetraChloride)
 ----------------------------------------------------------------------
 1/18=20,19=15,26=6,38=1,145=903/1,3;
 2/9=110,12=2,15=1,17=6,18=5,40=1/2;
 3/5=16,11=2,25=1,30=1,70=2201,71=1,72=11,74=-58,75=-5/1,2,3;
 4//1;
 5/5=2,38=5,53=11/2;
 6/7=2,8=2,9=2,10=2,28=1/1;
 7/30=1/1,2,3,16;
 1/18=20,19=15,26=6,145=903/3(2);
 2/9=110,15=1/2;
 99//99;
 2/9=110,15=1/2;
 3/5=16,11=2,25=1,30=1,70=2205,71=1,72=11,74=-58,75=-5/1,2,3;
 4/5=5,16=3,69=1/1;
 5/5=2,38=5,53=11/2;
 7/30=1/1,2,3,16;
 1/18=20,19=15,26=6,145=903/3(-5);
 2/9=110,15=1/2;
 6/7=2,8=2,9=2,10=2,19=2,28=1/1;
 99/9=1/99;
 Leave Link    1 at Tue Oct 27 21:58:31 2020, MaxMem=  7784628224 cpu:               3.7 elap:               0.6
 (Enter /gpfs/loomis/apps/avx/software/Gaussian/16-C.01_AVX/g16/l101.exe)
 ------------------------------------------------
 NM 2D-scan of HBT TD-WB97XD pVDZ in CTC Relaxed.
 ------------------------------------------------
 Symbolic Z-matrix:
 Charge =  0 Multiplicity = 1
 C                     1.69083  -3.26731  -0.00002 
 C                     1.00021  -2.05762  -0.00002 
 C                     1.6956   -0.81437  -0.00002 
 C                     3.1075   -0.80408  -0.00002 
 C                     3.78133  -2.013    -0.00002 
 C                     3.08636  -3.23662  -0.00002 
 H                     1.15543  -4.21789  -0.00002 
 H                     3.63754   0.14928  -0.00002 
 H                     4.87296  -2.01831  -0.00002 
 H                     3.64321  -4.17481  -0.00002 
 N                     0.89643   0.26985  -0.00002 
 S                    -0.7374   -1.77644  -0.00002 
 C                    -1.38971   1.01725   0. 
 C                    -2.7863    0.8474   0. 
 C                    -0.87735   2.41001   0.00003 
 C                    -3.64578   1.95271   0.00002 
 H                    -3.20531  -0.16075  -0.00003 
 C                    -1.78102   3.49469   0.00006 
 C                    -3.15462   3.2742    0.00006 
 H                    -4.72378   1.78191   0.00002 
 H                    -1.35359   4.49825   0.00008 
 H                    -3.8482    4.11543   0.00008 
 C                    -0.42923  -0.02786  -0.00002 
 O                     0.39795   2.63336   0.00003 
 H                     0.89796   1.60712   0.00001 
 
 Add virtual bond connecting atoms H25        and O24        Dist= 2.16D+00.
 Initializing the GIC definitions file.
 Number of initial coordinates =   131
 Number of input entries/lines =    52
 Number of additional coordinates =     2
 Number of removed coordinates =     0
 Number of frozen coordinates =     2
 Number of final active and frozen coordinates =   133
 ITRead=  0  0  0  0  0  0  0  0  0  0  0  0  0  0  0  0  0  0  0  0
 ITRead=  0  0  0  0  0
 MicOpt= -1 -1 -1 -1 -1 -1 -1 -1 -1 -1 -1 -1 -1 -1 -1 -1 -1 -1 -1 -1
 MicOpt= -1 -1 -1 -1 -1
 NAtoms=     25 NQM=       25 NQMF=       0 NMMI=      0 NMMIF=      0
                NMic=       0 NMicF=      0.
                    Isotopes and Nuclear Properties:
 (Nuclear quadrupole moments (NQMom) in fm**2, nuclear magnetic moments (NMagM)
  in nuclear magnetons)

  Atom         1           2           3           4           5           6           7           8           9          10
 IAtWgt=          12          12          12          12          12          12           1           1           1           1
 AtmWgt=  12.0000000  12.0000000  12.0000000  12.0000000  12.0000000  12.0000000   1.0078250   1.0078250   1.0078250   1.0078250
 NucSpn=           0           0           0           0           0           0           1           1           1           1
 AtZEff=  -0.0000000  -0.0000000  -0.0000000  -0.0000000  -0.0000000  -0.0000000  -0.0000000  -0.0000000  -0.0000000  -0.0000000
 NQMom=    0.0000000   0.0000000   0.0000000   0.0000000   0.0000000   0.0000000   0.0000000   0.0000000   0.0000000   0.0000000
 NMagM=    0.0000000   0.0000000   0.0000000   0.0000000   0.0000000   0.0000000   2.7928460   2.7928460   2.7928460   2.7928460
 AtZNuc=   6.0000000   6.0000000   6.0000000   6.0000000   6.0000000   6.0000000   1.0000000   1.0000000   1.0000000   1.0000000

  Atom        11          12          13          14          15          16          17          18          19          20
 IAtWgt=          14          32          12          12          12          12           1          12          12           1
 AtmWgt=  14.0030740  31.9720718  12.0000000  12.0000000  12.0000000  12.0000000   1.0078250  12.0000000  12.0000000   1.0078250
 NucSpn=           2           0           0           0           0           0           1           0           0           1
 AtZEff=  -0.0000000  -0.0000000  -0.0000000  -0.0000000  -0.0000000  -0.0000000  -0.0000000  -0.0000000  -0.0000000  -0.0000000
 NQMom=    2.0440000   0.0000000   0.0000000   0.0000000   0.0000000   0.0000000   0.0000000   0.0000000   0.0000000   0.0000000
 NMagM=    0.4037610   0.0000000   0.0000000   0.0000000   0.0000000   0.0000000   2.7928460   0.0000000   0.0000000   2.7928460
 AtZNuc=   7.0000000  16.0000000   6.0000000   6.0000000   6.0000000   6.0000000   1.0000000   6.0000000   6.0000000   1.0000000

  Atom        21          22          23          24          25
 IAtWgt=           1           1          12          16           1
 AtmWgt=   1.0078250   1.0078250  12.0000000  15.9949146   1.0078250
 NucSpn=           1           1           0           0           1
 AtZEff=  -0.0000000  -0.0000000  -0.0000000  -0.0000000  -0.0000000
 NQMom=    0.0000000   0.0000000   0.0000000   0.0000000   0.0000000
 NMagM=    2.7928460   2.7928460   0.0000000   0.0000000   2.7928460
 AtZNuc=   1.0000000   1.0000000   6.0000000   8.0000000   1.0000000
 Leave Link  101 at Tue Oct 27 21:58:35 2020, MaxMem=  7784628224 cpu:              33.8 elap:               3.7
 (Enter /gpfs/loomis/apps/avx/software/Gaussian/16-C.01_AVX/g16/l103.exe)

 GradGradGradGradGradGradGradGradGradGradGradGradGradGradGradGradGradGrad
 Berny optimization.
 Initialization pass.
                           ----------------------------
                           !    Initial Parameters    !
                           ! (Angstroms and Degrees)  !
 --------------------------                            --------------------------
 ! Name  Definition              Value          Derivative Info.                !
 --------------------------------------------------------------------------------
 ! R1    R(1,2)                  1.3929         estimate D2E/DX2                !
 ! R2    R(1,6)                  1.3959         estimate D2E/DX2                !
 ! R3    R(1,7)                  1.091          estimate D2E/DX2                !
 ! R4    R(2,3)                  1.4245         estimate D2E/DX2                !
 ! R5    R(2,12)                 1.7602         estimate D2E/DX2                !
 ! R6    R(3,4)                  1.4119         estimate D2E/DX2                !
 ! R7    R(3,11)                 1.3469         estimate D2E/DX2                !
 ! R8    R(4,5)                  1.384          estimate D2E/DX2                !
 ! R9    R(4,8)                  1.0908         estimate D2E/DX2                !
 ! R10   R(5,6)                  1.4072         estimate D2E/DX2                !
 ! R11   R(5,9)                  1.0916         estimate D2E/DX2                !
 ! R12   R(6,10)                 1.091          estimate D2E/DX2                !
 ! R13   R(11,23)                1.3587         estimate D2E/DX2                !
 ! R14   R(12,23)                1.7755         estimate D2E/DX2                !
 ! R15   R(13,14)                1.4069         estimate D2E/DX2                !
 ! R16   R(13,15)                1.484          estimate D2E/DX2                !
 ! R17   R(13,23)                1.4194         estimate D2E/DX2                !
 ! R18   R(14,16)                1.4001         estimate D2E/DX2                !
 ! R19   R(14,17)                1.0918         estimate D2E/DX2                !
 ! R20   R(15,18)                1.4118         estimate D2E/DX2                !
 ! R21   R(15,24)                1.2947         estimate D2E/DX2                !
 ! R22   R(16,19)                1.4098         estimate D2E/DX2                !
 ! R23   R(16,20)                1.0914         estimate D2E/DX2                !
 ! R24   R(18,19)                1.3912         estimate D2E/DX2                !
 ! R25   R(18,21)                1.0908         estimate D2E/DX2                !
 ! R26   R(19,22)                1.0903         estimate D2E/DX2                !
 ! R27   R(24,25)                1.1416         estimate D2E/DX2                !
 ! A1    A(2,1,6)              118.462          estimate D2E/DX2                !
 ! A2    A(2,1,7)              120.8882         estimate D2E/DX2                !
 ! A3    A(6,1,7)              120.6498         estimate D2E/DX2                !
 ! A4    A(1,2,3)              121.0582         estimate D2E/DX2                !
 ! A5    A(1,2,12)             128.9141         estimate D2E/DX2                !
 ! A6    A(3,2,12)             110.0278         estimate D2E/DX2                !
 ! A7    A(2,3,4)              119.6375         estimate D2E/DX2                !
 ! A8    A(2,3,11)             114.3867         estimate D2E/DX2                !
 ! A9    A(4,3,11)             125.9759         estimate D2E/DX2                !
 ! A10   A(3,4,5)              118.7165         estimate D2E/DX2                !
 ! A11   A(3,4,8)              119.4906         estimate D2E/DX2                !
 ! A12   A(5,4,8)              121.7929         estimate D2E/DX2                !
 ! A13   A(4,5,6)              121.2708         estimate D2E/DX2                !
 ! A14   A(4,5,9)              119.4128         estimate D2E/DX2                !
 ! A15   A(6,5,9)              119.3164         estimate D2E/DX2                !
 ! A16   A(1,6,5)              120.855          estimate D2E/DX2                !
 ! A17   A(1,6,10)             119.4308         estimate D2E/DX2                !
 ! A18   A(5,6,10)             119.7142         estimate D2E/DX2                !
 ! A19   A(3,11,23)            113.7362         estimate D2E/DX2                !
 ! A20   A(2,12,23)             89.1965         estimate D2E/DX2                !
 ! A21   A(14,13,15)           117.1315         estimate D2E/DX2                !
 ! A22   A(14,13,23)           125.6499         estimate D2E/DX2                !
 ! A23   A(15,13,23)           117.2187         estimate D2E/DX2                !
 ! A24   A(13,14,16)           120.934          estimate D2E/DX2                !
 ! A25   A(13,14,17)           119.5031         estimate D2E/DX2                !
 ! A26   A(16,14,17)           119.5629         estimate D2E/DX2                !
 ! A27   A(13,15,18)           120.0043         estimate D2E/DX2                !
 ! A28   A(13,15,24)           120.131          estimate D2E/DX2                !
 ! A29   A(18,15,24)           119.8647         estimate D2E/DX2                !
 ! A30   A(14,16,19)           121.7434         estimate D2E/DX2                !
 ! A31   A(14,16,20)           118.8652         estimate D2E/DX2                !
 ! A32   A(19,16,20)           119.3914         estimate D2E/DX2                !
 ! A33   A(15,18,19)           120.6789         estimate D2E/DX2                !
 ! A34   A(15,18,21)           117.1318         estimate D2E/DX2                !
 ! A35   A(19,18,21)           122.1893         estimate D2E/DX2                !
 ! A36   A(16,19,18)           119.5079         estimate D2E/DX2                !
 ! A37   A(16,19,22)           120.1066         estimate D2E/DX2                !
 ! A38   A(18,19,22)           120.3855         estimate D2E/DX2                !
 ! A39   A(11,23,12)           112.6529         estimate D2E/DX2                !
 ! A40   A(11,23,13)           119.9266         estimate D2E/DX2                !
 ! A41   A(12,23,13)           127.4205         estimate D2E/DX2                !
 ! A42   A(15,24,25)           106.0429         estimate D2E/DX2                !
 ! D1    D(6,1,2,3)              0.0            estimate D2E/DX2                !
 ! D2    D(6,1,2,12)          -179.9999         estimate D2E/DX2                !
 ! D3    D(7,1,2,3)            180.0            estimate D2E/DX2                !
 ! D4    D(7,1,2,12)             0.0            estimate D2E/DX2                !
 ! D5    D(2,1,6,5)              0.0            estimate D2E/DX2                !
 ! D6    D(2,1,6,10)           180.0            estimate D2E/DX2                !
 ! D7    D(7,1,6,5)           -180.0            estimate D2E/DX2                !
 ! D8    D(7,1,6,10)             0.0            estimate D2E/DX2                !
 ! D9    D(1,2,3,4)              0.0            estimate D2E/DX2                !
 ! D10   D(1,2,3,11)           180.0            estimate D2E/DX2                !
 ! D11   D(12,2,3,4)           180.0            estimate D2E/DX2                !
 ! D12   D(12,2,3,11)           -0.0001         estimate D2E/DX2                !
 ! D13   D(1,2,12,23)          179.9999         estimate D2E/DX2                !
 ! D14   D(3,2,12,23)           -0.0001         estimate D2E/DX2                !
 ! D15   D(2,3,4,5)              0.0            estimate D2E/DX2                !
 ! D16   D(2,3,4,8)            180.0            estimate D2E/DX2                !
 ! D17   D(11,3,4,5)          -180.0            estimate D2E/DX2                !
 ! D18   D(11,3,4,8)             0.0            estimate D2E/DX2                !
 ! D19   D(2,3,11,23)            0.0002         estimate D2E/DX2                !
 ! D20   D(4,3,11,23)         -179.9998         estimate D2E/DX2                !
 ! D21   D(3,4,5,6)              0.0            estimate D2E/DX2                !
 ! D22   D(3,4,5,9)           -180.0            estimate D2E/DX2                !
 ! D23   D(8,4,5,6)           -180.0            estimate D2E/DX2                !
 ! D24   D(8,4,5,9)              0.0            estimate D2E/DX2                !
 ! D25   D(4,5,6,1)              0.0            estimate D2E/DX2                !
 ! D26   D(4,5,6,10)          -180.0            estimate D2E/DX2                !
 ! D27   D(9,5,6,1)            180.0            estimate D2E/DX2                !
 ! D28   D(9,5,6,10)             0.0            estimate D2E/DX2                !
 ! D29   D(3,11,23,12)          -0.0003         estimate D2E/DX2                !
 ! D30   D(3,11,23,13)         179.9992         estimate D2E/DX2                !
 ! D31   D(2,12,23,11)           0.0002         estimate D2E/DX2                !
 ! D32   D(2,12,23,13)        -179.9993         estimate D2E/DX2                !
 ! D33   D(15,13,14,16)         -0.0003         estimate D2E/DX2                !
 ! D34   D(15,13,14,17)        179.9998         estimate D2E/DX2                !
 ! D35   D(23,13,14,16)        179.9996         estimate D2E/DX2                !
 ! D36   D(23,13,14,17)         -0.0003         estimate D2E/DX2                !
 ! D37   D(14,13,15,18)          0.0003         estimate D2E/DX2                !
 ! D38   D(14,13,15,24)       -179.9999         estimate D2E/DX2                !
 ! D39   D(23,13,15,18)       -179.9996         estimate D2E/DX2                !
 ! D40   D(23,13,15,24)          0.0003         estimate D2E/DX2                !
 ! D41   D(14,13,23,11)        179.9994         estimate D2E/DX2                !
 ! D42   D(14,13,23,12)         -0.0012         estimate D2E/DX2                !
 ! D43   D(15,13,23,11)         -0.0007         estimate D2E/DX2                !
 ! D44   D(15,13,23,12)        179.9987         estimate D2E/DX2                !
 ! D45   D(13,14,16,19)          0.0001         estimate D2E/DX2                !
 ! D46   D(13,14,16,20)       -179.9999         estimate D2E/DX2                !
 ! D47   D(17,14,16,19)       -180.0            estimate D2E/DX2                !
 ! D48   D(17,14,16,20)          0.0            estimate D2E/DX2                !
 ! D49   D(13,15,18,19)          0.0            estimate D2E/DX2                !
 ! D50   D(13,15,18,21)        179.9998         estimate D2E/DX2                !
 ! D51   D(24,15,18,19)       -179.9999         estimate D2E/DX2                !
 ! D52   D(24,15,18,21)          0.0            estimate D2E/DX2                !
 ! D53   D(13,15,24,25)          0.0002         estimate D2E/DX2                !
 ! D54   D(18,15,24,25)       -180.0            estimate D2E/DX2                !
 ! D55   D(14,16,19,18)          0.0002         estimate D2E/DX2                !
 ! D56   D(14,16,19,22)       -179.9999         estimate D2E/DX2                !
 ! D57   D(20,16,19,18)       -179.9999         estimate D2E/DX2                !
 ! D58   D(20,16,19,22)          0.0001         estimate D2E/DX2                !
 ! D59   D(15,18,19,16)         -0.0002         estimate D2E/DX2                !
 ! D60   D(15,18,19,22)        179.9999         estimate D2E/DX2                !
 ! D61   D(21,18,19,16)        180.0            estimate D2E/DX2                !
 ! D62   D(21,18,19,22)          0.0            estimate D2E/DX2                !
 ! Qtot  GIC-1                   0.0            Frozen                          !
 ! Ptot  GIC-2                 -40.0            Frozen                          !
 --------------------------------------------------------------------------------
 NOTE: GIC-type coordinates are in arbitrary units.
 Trust Radius=3.00D-01 FncErr=5.00D-06 GrdErr=5.00D-06 EigMax=2.50D+02 EigMin=1.00D-04
 Number of steps in this run=    143 maximum allowed number of steps=    150.
 GradGradGradGradGradGradGradGradGradGradGradGradGradGradGradGradGradGrad

 Leave Link  103 at Tue Oct 27 21:58:35 2020, MaxMem=  7784628224 cpu:               0.2 elap:               0.1
 (Enter /gpfs/loomis/apps/avx/software/Gaussian/16-C.01_AVX/g16/l202.exe)
                          Input orientation:                          
 ---------------------------------------------------------------------
 Center     Atomic      Atomic             Coordinates (Angstroms)
 Number     Number       Type             X           Y           Z
 ---------------------------------------------------------------------
      1          6           0        1.690828   -3.267315   -0.000023
      2          6           0        1.000213   -2.057620   -0.000021
      3          6           0        1.695604   -0.814372   -0.000021
      4          6           0        3.107500   -0.804079   -0.000021
      5          6           0        3.781325   -2.013004   -0.000022
      6          6           0        3.086357   -3.236620   -0.000023
      7          1           0        1.155433   -4.217887   -0.000022
      8          1           0        3.637540    0.149275   -0.000021
      9          1           0        4.872958   -2.018311   -0.000022
     10          1           0        3.643209   -4.174806   -0.000023
     11          7           0        0.896432    0.269853   -0.000020
     12         16           0       -0.737405   -1.776437   -0.000019
     13          6           0       -1.389713    1.017248    0.000002
     14          6           0       -2.786303    0.847397   -0.000003
     15          6           0       -0.877350    2.410011    0.000031
     16          6           0       -3.645777    1.952707    0.000024
     17          1           0       -3.205314   -0.160752   -0.000028
     18          6           0       -1.781020    3.494693    0.000058
     19          6           0       -3.154622    3.274200    0.000056
     20          1           0       -4.723778    1.781912    0.000020
     21          1           0       -1.353590    4.498250    0.000082
     22          1           0       -3.848197    4.115426    0.000079
     23          6           0       -0.429225   -0.027860   -0.000015
     24          8           0        0.397946    2.633359    0.000035
     25          1           0        0.897959    1.607120    0.000010
 ---------------------------------------------------------------------
                    Distance matrix (angstroms):
                    1          2          3          4          5
     1  C    0.000000
     2  C    1.392950   0.000000
     3  C    2.452947   1.424512   0.000000
     4  C    2.841564   2.451942   1.411933   0.000000
     5  C    2.437924   2.781470   2.405608   1.384030   0.000000
     6  C    1.395866   2.396254   2.793112   2.432632   1.407202
     7  H    1.090979   2.165836   3.446113   3.932512   3.428822
     8  H    3.932273   3.438878   2.167886   1.090792   2.167055
     9  H    3.418473   3.872944   3.397800   2.142709   1.091646
    10  H    2.152982   3.386429   3.884029   3.413032   2.166210
    11  N    3.625276   2.329786   1.346930   2.458079   3.678865
    12  S    2.849392   1.760222   2.616314   3.965951   4.524918
    13  C    5.277045   3.894427   3.588037   4.852026   5.993501
    14  C    6.080753   4.772508   4.780059   6.120807   7.163493
    15  C    6.231177   4.846130   4.125135   5.119512   6.423886
    16  C    7.465118   6.137422   6.015570   7.294287   8.419543
    17  H    5.798529   4.613521   4.944312   6.345509   7.227999
    18  C    7.601216   6.209947   5.536692   6.509767   7.827798
    19  C    8.140626   6.759509   6.343588   7.473053   8.721346
    20  H    8.163447   6.892466   6.924533   8.247197   9.313333
    21  H    8.341012   6.965618   6.125483   6.929359   8.292393
    22  H    9.229607   7.849432   7.418668   8.519580   9.786074
    23  C    3.871523   2.482583   2.265723   3.620903   4.655054
    24  O    6.040654   4.729484   3.683852   4.376947   5.747690
    25  H    4.938497   3.666167   2.549483   3.270467   4.628077
                    6          7          8          9         10
     6  C    0.000000
     7  H    2.165953   0.000000
     8  H    3.430465   5.023242   0.000000
     9  H    2.162457   4.319506   2.494932   0.000000
    10  H    1.090999   2.488149   4.324085   2.482490   0.000000
    11  N    4.134141   4.495208   2.743759   4.587860   5.224919
    12  S    4.093078   3.089258   4.780011   5.615574   4.994192
    13  C    6.174997   5.821031   5.101631   6.959573   7.231025
    14  C    7.153134   6.418285   6.461666   8.177809   8.158501
    15  C    6.898943   6.932621   5.049272   7.257828   7.987194
    16  C    8.500043   7.818430   7.503270   9.398821   9.522381
    17  H    7.003291   5.956212   6.849873   8.289089   7.938193
    18  C    8.306740   8.252675   6.368093   8.641102   9.393800
    19  C    9.018901   8.643375   7.476537   9.615233  10.084552
    20  H    9.283526   8.400161   8.519221  10.321774  10.270782
    21  H    8.918595   9.070074   6.620042   9.013072  10.009491
    22  H   10.106463   9.720103   8.471517  10.662141  11.173589
    23  C    4.759774   4.479672   4.070621   5.663483   5.812218
    24  O    6.456331   6.892993   4.082357   6.454747   7.542072
    25  H    5.315158   5.830694   3.103323   5.379997   6.400552
                   11         12         13         14         15
    11  N    0.000000
    12  S    2.618535   0.000000
    13  C    2.405214   2.868828   0.000000
    14  C    3.727746   3.329037   1.406881   0.000000
    15  C    2.779672   4.188786   1.484017   2.466955   0.000000
    16  C    4.843930   4.729180   2.442317   1.400145   2.805943
    17  H    4.124287   2.949748   2.164276   1.091757   3.468175
    18  C    4.191460   5.373448   2.508159   2.831744   1.411791
    19  C    5.043524   5.599274   2.865089   2.454594   2.435732
    20  H    5.820058   5.343502   3.420628   2.151076   3.897373
    21  H    4.789774   6.304870   3.481190   3.921913   2.141856
    22  H    6.107366   6.662662   3.955104   3.436223   3.425547
    23  C    1.358676   1.775526   1.419432   2.514337   2.478716
    24  O    2.415502   4.553605   2.409884   3.650904   1.294706
    25  H    1.337267   3.758041   2.362497   3.761777   1.948424
                   16         17         18         19         20
    16  C    0.000000
    17  H    2.158869   0.000000
    18  C    2.419719   3.923123   0.000000
    19  C    1.409815   3.435326   1.391186   0.000000
    20  H    1.091447   2.465700   3.404914   2.165450   0.000000
    21  H    3.425480   5.013500   1.090790   2.177616   4.328586
    22  H    2.172171   4.324233   2.158362   1.090278   2.492374
    23  C    3.777414   2.779268   3.773027   4.281517   4.660307
    24  O    4.100608   4.559664   2.343030   3.609905   5.192014
    25  H    4.556859   4.467910   3.277173   4.382073   5.624453
                   21         22         23         24         25
    21  H    0.000000
    22  H    2.523810   0.000000
    23  C    4.619538   5.371795   0.000000
    24  O    2.558456   4.497360   2.786809   0.000000
    25  H    3.664438   5.368201   2.105844   1.141569   0.000000
 Symmetry turned off by external request.
 Stoichiometry    C13H9NOS
 Framework group  C1[X(C13H9NOS)]
 Deg. of freedom    69
 Full point group                 C1      NOp   1
 Rotational constants (GHZ):           1.3692349           0.2858081           0.2364521
 Leave Link  202 at Tue Oct 27 21:58:36 2020, MaxMem=  7784628224 cpu:               0.2 elap:               0.1
 (Enter /gpfs/loomis/apps/avx/software/Gaussian/16-C.01_AVX/g16/l301.exe)
 Standard basis: CC-pVDZ (5D, 7F)
 Ernie: Thresh=  0.10000D-02 Tol=  0.10000D-05 Strict=F.
 Ernie:  40 primitive shells out of 425 were deleted.
   273 basis functions,   629 primitive gaussians,   289 cartesian basis functions
    59 alpha electrons       59 beta electrons
       nuclear repulsion energy      1097.2222545937 Hartrees.
 IExCor= 4639 DFT=T Ex+Corr=wB97XD ExCW=0 ScaHFX=  1.000000
 ScaDFX=  1.000000  1.000000  1.000000  1.000000 ScalE2=  1.000000  1.000000
 IRadAn=      5 IRanWt=     -1 IRanGd=            0 ICorTp=0 IEmpDi=121
 HFx  wShort=  0.000000 wLong=  0.200000 cFull=  0.222036 cShort=  0.000000 cLong=  0.777964
 DFx  wShort=  0.000000 wLong=  0.200000 cFull=  0.000000 cShort=  0.000000 cLong=  1.000000
 NAtoms=   25 NActive=   25 NUniq=   25 SFac= 1.00D+00 NAtFMM=   60 NAOKFM=F Big=F
 Integral buffers will be    131072 words long.
 Raffenetti 2 integral format.
 Two-electron integral symmetry is turned off.
 R6Disp:  Grimme-D2 Dispersion energy=       -0.0139784946 Hartrees.
 Nuclear repulsion after empirical dispersion term =     1097.2082760991 Hartrees.
 ------------------------------------------------------------------------------
 Polarizable Continuum Model (PCM)
 =================================
 Model                : PCM.
 Atomic radii         : UFF (Universal Force Field).
 Polarization charges : Total charges.
 Charge compensation  : None.
 Solution method      : On-the-fly selection.
 Cavity type          : Scaled VdW (van der Waals Surface) (Alpha=1.100).
 Cavity algorithm     : GePol (No added spheres)
                        Default sphere list used, NSphG=   25.
                        Lebedev-Laikov grids with approx.  5.0 points / Ang**2.
                        Smoothing algorithm: York/Karplus (Gamma=1.0000).
                        Polarization charges: spherical gaussians, with
                                              point-specific exponents (IZeta= 3).
                        Self-potential: point-specific (ISelfS= 7).
                        Self-field    : sphere-specific E.n sum rule (ISelfD= 2).
 1st derivatives      : Analytical E(r).r(x)/FMM algorithm (CHGder, D1EAlg=3).
                        Cavity 1st derivative terms included.
 Solvent              : CarbonTetraChloride, Eps=   2.228000 Eps(inf)=   2.131892
 ------------------------------------------------------------------------------
 GePol: Number of generator spheres                  =      25
 GePol: Total number of spheres                      =      25
 GePol: Number of exposed spheres                    =      25 (100.00%)
 GePol: Number of points                             =    2192
 GePol: Average weight of points                     =       0.13
 GePol: Minimum weight of points                     =   0.21D-09
 GePol: Maximum weight of points                     =    0.20577
 GePol: Number of points with low weight             =     152
 GePol: Fraction of low-weight points (<1% of avg)   =       6.93%
 GePol: Cavity surface area                          =    274.691 Ang**2
 GePol: Cavity volume                                =    293.872 Ang**3
 Leave Link  301 at Tue Oct 27 21:58:36 2020, MaxMem=  7784628224 cpu:               1.0 elap:               0.2
 (Enter /gpfs/loomis/apps/avx/software/Gaussian/16-C.01_AVX/g16/l302.exe)
 NPDir=0 NMtPBC=     1 NCelOv=     1 NCel=       1 NClECP=     1 NCelD=      1
         NCelK=      1 NCelE2=     1 NClLst=     1 CellRange=     0.0.
 One-electron integrals computed using PRISM.
 NBasis=   273 RedAO= T EigKep=  3.11D-04  NBF=   273
 NBsUse=   273 1.00D-06 EigRej= -1.00D+00 NBFU=   273
 Precomputing XC quadrature grid using
 IXCGrd= 4 IRadAn=           5 IRanWt=          -1 IRanGd=           0 AccXCQ= 0.00D+00.
 Generated NRdTot=       0 NPtTot=           0 NUsed=           0 NTot=          32
 NSgBfM=   288   288   288   288   288 MxSgAt=    25 MxSgA2=    25.
 Leave Link  302 at Tue Oct 27 21:58:37 2020, MaxMem=  7784628224 cpu:               6.3 elap:               1.0
 (Enter /gpfs/loomis/apps/avx/software/Gaussian/16-C.01_AVX/g16/l303.exe)
 DipDrv:  MaxL=1.
 Leave Link  303 at Tue Oct 27 21:58:38 2020, MaxMem=  7784628224 cpu:               1.2 elap:               0.2
 (Enter /gpfs/loomis/apps/avx/software/Gaussian/16-C.01_AVX/g16/l401.exe)
 ExpMin= 1.22D-01 ExpMax= 1.11D+05 ExpMxC= 1.07D+03 IAcc=3 IRadAn=         5 AccDes= 0.00D+00
 Harris functional with IExCor= 4639 and IRadAn=       5 diagonalized for initial guess.
 HarFok:  IExCor= 4639 AccDes= 0.00D+00 IRadAn=         5 IDoV= 1 UseB2=F ITyADJ=14
 ICtDFT=  3500011 ScaDFX=  1.000000  1.000000  1.000000  1.000000
 FoFCou: FMM=F IPFlag=           0 FMFlag=      100000 FMFlg1=           0
         NFxFlg=           0 DoJE=T BraDBF=F KetDBF=T FulRan=T
         wScrn=  0.000000 ICntrl=       500 IOpCl=  0 I1Cent=   200000004 NGrid=           0
         NMat0=    1 NMatS0=      1 NMatT0=    0 NMatD0=    1 NMtDS0=    0 NMtDT0=    0
 Symmetry not used in FoFCou.
 Harris En= -994.459650609053    
 JPrj=0 DoOrth=F DoCkMO=F.
 Leave Link  401 at Tue Oct 27 21:58:40 2020, MaxMem=  7784628224 cpu:              15.7 elap:               2.5
 (Enter /gpfs/loomis/apps/avx/software/Gaussian/16-C.01_AVX/g16/l502.exe)
 Two-electron integral symmetry not used.
 Closed shell SCF:
 Using DIIS extrapolation, IDIIS=  1040.
 NGot=  7784628224 LenX=  7784455381 LenY=  7784371419
 Requested convergence on RMS density matrix=1.00D-08 within 128 cycles.
 Requested convergence on MAX density matrix=1.00D-06.
 Requested convergence on             energy=1.00D-06.
 No special actions if energy rises.
 Fock matrices will be formed incrementally for  20 cycles.

 Cycle   1  Pass 1  IDiag  1:
 FoFJK:  IHMeth= 1 ICntrl=       0 DoSepK=T KAlg= 0 I1Cent=           0 FoldK=F
 IRaf=         1 NMat=       1 IRICut=       1 DoRegI=T DoRafI=F ISym2E= 0 IDoP0=0 IntGTp=1.
 FoFCou: FMM=F IPFlag=           0 FMFlag=      100000 FMFlg1=           0
         NFxFlg=           0 DoJE=T BraDBF=F KetDBF=F FulRan=T
         wScrn=  0.000000 ICntrl=       500 IOpCl=  0 I1Cent=           0 NGrid=           0
         NMat0=    1 NMatS0=      1 NMatT0=    0 NMatD0=    1 NMtDS0=    0 NMtDT0=    0
 Symmetry not used in FoFCou.
 Inv3:  Mode=1 IEnd=    14414592.
 Iteration    1 A*A^-1 deviation from unit magnitude is 5.33D-15 for   2187.
 Iteration    1 A*A^-1 deviation from orthogonality  is 1.87D-15 for   1151    630.
 Iteration    1 A^-1*A deviation from unit magnitude is 5.55D-15 for   2187.
 Iteration    1 A^-1*A deviation from orthogonality  is 2.09D-15 for   1275    437.
 E= -1028.57730159247    
 DIIS: error= 3.50D-02 at cycle   1 NSaved=   1.
 NSaved= 1 IEnMin= 1 EnMin= -1028.57730159247     IErMin= 1 ErrMin= 3.50D-02
 ErrMax= 3.50D-02  0.00D+00 EMaxC= 1.00D-01 BMatC= 3.91D-01 BMatP= 3.91D-01
 IDIUse=3 WtCom= 6.50D-01 WtEn= 3.50D-01
 Coeff-Com:  0.100D+01
 Coeff-En:   0.100D+01
 Coeff:      0.100D+01
 Gap=     0.348 Goal=   None    Shift=    0.000
 GapD=    0.348 DampG=1.000 DampE=0.500 DampFc=0.5000 IDamp=-1.
 Damping current iteration by 5.00D-01
 RMSDP=3.53D-03 MaxDP=2.25D-01              OVMax= 1.75D-01

 Cycle   2  Pass 1  IDiag  1:
 RMSU=  1.76D-03    CP:  9.93D-01
 E= -1028.69546433877     Delta-E=       -0.118162746300 Rises=F Damp=T
 DIIS: error= 1.25D-02 at cycle   2 NSaved=   2.
 NSaved= 2 IEnMin= 2 EnMin= -1028.69546433877     IErMin= 2 ErrMin= 1.25D-02
 ErrMax= 1.25D-02  0.00D+00 EMaxC= 1.00D-01 BMatC= 5.76D-02 BMatP= 3.91D-01
 IDIUse=3 WtCom= 8.75D-01 WtEn= 1.25D-01
 Coeff-Com: -0.292D+00 0.129D+01
 Coeff-En:   0.000D+00 0.100D+01
 Coeff:     -0.255D+00 0.126D+01
 Gap=     0.300 Goal=   None    Shift=    0.000
 RMSDP=1.14D-03 MaxDP=2.38D-02 DE=-1.18D-01 OVMax= 1.14D-01

 Cycle   3  Pass 1  IDiag  1:
 RMSU=  1.08D-03    CP:  9.91D-01  1.20D+00
 E= -1028.80059912492     Delta-E=       -0.105134786155 Rises=F Damp=F
 DIIS: error= 5.60D-03 at cycle   3 NSaved=   3.
 NSaved= 3 IEnMin= 3 EnMin= -1028.80059912492     IErMin= 3 ErrMin= 5.60D-03
 ErrMax= 5.60D-03  0.00D+00 EMaxC= 1.00D-01 BMatC= 1.29D-02 BMatP= 5.76D-02
 IDIUse=3 WtCom= 9.44D-01 WtEn= 5.60D-02
 Coeff-Com: -0.198D+00 0.473D+00 0.725D+00
 Coeff-En:   0.000D+00 0.000D+00 0.100D+01
 Coeff:     -0.187D+00 0.446D+00 0.741D+00
 Gap=     0.260 Goal=   None    Shift=    0.000
 RMSDP=5.08D-04 MaxDP=1.77D-02 DE=-1.05D-01 OVMax= 3.75D-02

 Cycle   4  Pass 1  IDiag  1:
 RMSU=  3.99D-04    CP:  9.89D-01  1.36D+00  8.55D-01
 E= -1028.81272839051     Delta-E=       -0.012129265586 Rises=F Damp=F
 DIIS: error= 1.95D-03 at cycle   4 NSaved=   4.
 NSaved= 4 IEnMin= 4 EnMin= -1028.81272839051     IErMin= 4 ErrMin= 1.95D-03
 ErrMax= 1.95D-03  0.00D+00 EMaxC= 1.00D-01 BMatC= 1.55D-03 BMatP= 1.29D-02
 IDIUse=3 WtCom= 9.80D-01 WtEn= 1.95D-02
 Coeff-Com: -0.703D-01 0.139D+00 0.350D+00 0.582D+00
 Coeff-En:   0.000D+00 0.000D+00 0.000D+00 0.100D+01
 Coeff:     -0.689D-01 0.136D+00 0.343D+00 0.590D+00
 Gap=     0.257 Goal=   None    Shift=    0.000
 RMSDP=1.60D-04 MaxDP=9.39D-03 DE=-1.21D-02 OVMax= 1.27D-02

 Cycle   5  Pass 1  IDiag  1:
 RMSU=  1.03D-04    CP:  9.89D-01  1.37D+00  9.21D-01  7.56D-01
 E= -1028.81434718116     Delta-E=       -0.001618790650 Rises=F Damp=F
 DIIS: error= 3.56D-04 at cycle   5 NSaved=   5.
 NSaved= 5 IEnMin= 5 EnMin= -1028.81434718116     IErMin= 5 ErrMin= 3.56D-04
 ErrMax= 3.56D-04  0.00D+00 EMaxC= 1.00D-01 BMatC= 4.91D-05 BMatP= 1.55D-03
 IDIUse=3 WtCom= 9.96D-01 WtEn= 3.56D-03
 Coeff-Com: -0.985D-03-0.399D-02 0.326D-01 0.158D+00 0.815D+00
 Coeff-En:   0.000D+00 0.000D+00 0.000D+00 0.000D+00 0.100D+01
 Coeff:     -0.981D-03-0.397D-02 0.324D-01 0.157D+00 0.815D+00
 Gap=     0.258 Goal=   None    Shift=    0.000
 RMSDP=5.04D-05 MaxDP=1.54D-03 DE=-1.62D-03 OVMax= 4.85D-03

 Cycle   6  Pass 1  IDiag  1:
 RMSU=  3.22D-05    CP:  9.89D-01  1.37D+00  9.39D-01  8.35D-01  1.08D+00
 E= -1028.81445047991     Delta-E=       -0.000103298752 Rises=F Damp=F
 DIIS: error= 1.51D-04 at cycle   6 NSaved=   6.
 NSaved= 6 IEnMin= 6 EnMin= -1028.81445047991     IErMin= 6 ErrMin= 1.51D-04
 ErrMax= 1.51D-04  0.00D+00 EMaxC= 1.00D-01 BMatC= 7.72D-06 BMatP= 4.91D-05
 IDIUse=3 WtCom= 9.98D-01 WtEn= 1.51D-03
 Coeff-Com:  0.143D-01-0.294D-01-0.582D-01-0.641D-01 0.191D+00 0.947D+00
 Coeff-En:   0.000D+00 0.000D+00 0.000D+00 0.000D+00 0.000D+00 0.100D+01
 Coeff:      0.143D-01-0.294D-01-0.581D-01-0.640D-01 0.190D+00 0.947D+00
 Gap=     0.259 Goal=   None    Shift=    0.000
 RMSDP=2.90D-05 MaxDP=1.51D-03 DE=-1.03D-04 OVMax= 2.53D-03

 Cycle   7  Pass 1  IDiag  1:
 RMSU=  1.46D-05    CP:  9.89D-01  1.37D+00  9.50D-01  8.64D-01  1.24D+00
                    CP:  1.25D+00
 E= -1028.81447506449     Delta-E=       -0.000024584583 Rises=F Damp=F
 DIIS: error= 8.29D-05 at cycle   7 NSaved=   7.
 NSaved= 7 IEnMin= 7 EnMin= -1028.81447506449     IErMin= 7 ErrMin= 8.29D-05
 ErrMax= 8.29D-05  0.00D+00 EMaxC= 1.00D-01 BMatC= 1.65D-06 BMatP= 7.72D-06
 IDIUse=1 WtCom= 1.00D+00 WtEn= 0.00D+00
 Coeff-Com:  0.580D-02-0.110D-01-0.269D-01-0.435D-01-0.187D-01 0.390D+00
 Coeff-Com:  0.705D+00
 Coeff:      0.580D-02-0.110D-01-0.269D-01-0.435D-01-0.187D-01 0.390D+00
 Coeff:      0.705D+00
 Gap=     0.259 Goal=   None    Shift=    0.000
 RMSDP=9.12D-06 MaxDP=3.69D-04 DE=-2.46D-05 OVMax= 1.15D-03

 Cycle   8  Pass 1  IDiag  1:
 RMSU=  5.66D-06    CP:  9.89D-01  1.37D+00  9.51D-01  8.70D-01  1.27D+00
                    CP:  1.43D+00  1.12D+00
 E= -1028.81447840894     Delta-E=       -0.000003344452 Rises=F Damp=F
 DIIS: error= 3.61D-05 at cycle   8 NSaved=   8.
 NSaved= 8 IEnMin= 8 EnMin= -1028.81447840894     IErMin= 8 ErrMin= 3.61D-05
 ErrMax= 3.61D-05  0.00D+00 EMaxC= 1.00D-01 BMatC= 2.95D-07 BMatP= 1.65D-06
 IDIUse=1 WtCom= 1.00D+00 WtEn= 0.00D+00
 Coeff-Com: -0.116D-02 0.257D-02 0.372D-02 0.109D-02-0.404D-01-0.652D-01
 Coeff-Com:  0.262D+00 0.837D+00
 Coeff:     -0.116D-02 0.257D-02 0.372D-02 0.109D-02-0.404D-01-0.652D-01
 Coeff:      0.262D+00 0.837D+00
 Gap=     0.259 Goal=   None    Shift=    0.000
 RMSDP=4.51D-06 MaxDP=1.37D-04 DE=-3.34D-06 OVMax= 5.91D-04

 Cycle   9  Pass 1  IDiag  1:
 RMSU=  2.20D-06    CP:  9.89D-01  1.37D+00  9.51D-01  8.69D-01  1.28D+00
                    CP:  1.49D+00  1.32D+00  1.11D+00
 E= -1028.81447915212     Delta-E=       -0.000000743173 Rises=F Damp=F
 DIIS: error= 1.51D-05 at cycle   9 NSaved=   9.
 NSaved= 9 IEnMin= 9 EnMin= -1028.81447915212     IErMin= 9 ErrMin= 1.51D-05
 ErrMax= 1.51D-05  0.00D+00 EMaxC= 1.00D-01 BMatC= 3.86D-08 BMatP= 2.95D-07
 IDIUse=1 WtCom= 1.00D+00 WtEn= 0.00D+00
 Coeff-Com: -0.109D-02 0.216D-02 0.455D-02 0.628D-02-0.104D-01-0.796D-01
 Coeff-Com: -0.591D-02 0.250D+00 0.834D+00
 Coeff:     -0.109D-02 0.216D-02 0.455D-02 0.628D-02-0.104D-01-0.796D-01
 Coeff:     -0.591D-02 0.250D+00 0.834D+00
 Gap=     0.259 Goal=   None    Shift=    0.000
 RMSDP=2.08D-06 MaxDP=5.49D-05 DE=-7.43D-07 OVMax= 3.25D-04

 Cycle  10  Pass 1  IDiag  1:
 RMSU=  1.00D-06    CP:  9.89D-01  1.37D+00  9.51D-01  8.69D-01  1.28D+00
                    CP:  1.52D+00  1.40D+00  1.27D+00  1.22D+00
 E= -1028.81447930027     Delta-E=       -0.000000148149 Rises=F Damp=F
 DIIS: error= 7.99D-06 at cycle  10 NSaved=  10.
 NSaved=10 IEnMin=10 EnMin= -1028.81447930027     IErMin=10 ErrMin= 7.99D-06
 ErrMax= 7.99D-06  0.00D+00 EMaxC= 1.00D-01 BMatC= 1.11D-08 BMatP= 3.86D-08
 IDIUse=1 WtCom= 1.00D+00 WtEn= 0.00D+00
 Coeff-Com: -0.158D-03 0.265D-03 0.919D-03 0.233D-02 0.405D-02-0.204D-01
 Coeff-Com: -0.470D-01-0.870D-01 0.323D+00 0.824D+00
 Coeff:     -0.158D-03 0.265D-03 0.919D-03 0.233D-02 0.405D-02-0.204D-01
 Coeff:     -0.470D-01-0.870D-01 0.323D+00 0.824D+00
 Gap=     0.259 Goal=   None    Shift=    0.000
 RMSDP=1.10D-06 MaxDP=2.92D-05 DE=-1.48D-07 OVMax= 1.81D-04

 Cycle  11  Pass 1  IDiag  1:
 RMSU=  4.56D-07    CP:  9.89D-01  1.37D+00  9.51D-01  8.69D-01  1.28D+00
                    CP:  1.53D+00  1.44D+00  1.35D+00  1.50D+00  1.23D+00
 E= -1028.81447933958     Delta-E=       -0.000000039316 Rises=F Damp=F
 DIIS: error= 3.71D-06 at cycle  11 NSaved=  11.
 NSaved=11 IEnMin=11 EnMin= -1028.81447933958     IErMin=11 ErrMin= 3.71D-06
 ErrMax= 3.71D-06  0.00D+00 EMaxC= 1.00D-01 BMatC= 1.80D-09 BMatP= 1.11D-08
 IDIUse=1 WtCom= 1.00D+00 WtEn= 0.00D+00
 Coeff-Com:  0.214D-03-0.439D-03-0.803D-03-0.690D-03 0.401D-02 0.954D-02
 Coeff-Com: -0.645D-02-0.829D-01-0.620D-01 0.216D+00 0.924D+00
 Coeff:      0.214D-03-0.439D-03-0.803D-03-0.690D-03 0.401D-02 0.954D-02
 Coeff:     -0.645D-02-0.829D-01-0.620D-01 0.216D+00 0.924D+00
 Gap=     0.259 Goal=   None    Shift=    0.000
 RMSDP=5.31D-07 MaxDP=1.34D-05 DE=-3.93D-08 OVMax= 9.81D-05

 Cycle  12  Pass 1  IDiag  1:
 RMSU=  1.94D-07    CP:  9.89D-01  1.37D+00  9.51D-01  8.69D-01  1.28D+00
                    CP:  1.53D+00  1.45D+00  1.37D+00  1.65D+00  1.51D+00
                    CP:  1.18D+00
 E= -1028.81447934825     Delta-E=       -0.000000008672 Rises=F Damp=F
 DIIS: error= 1.24D-06 at cycle  12 NSaved=  12.
 NSaved=12 IEnMin=12 EnMin= -1028.81447934825     IErMin=12 ErrMin= 1.24D-06
 ErrMax= 1.24D-06  0.00D+00 EMaxC= 1.00D-01 BMatC= 4.83D-10 BMatP= 1.80D-09
 IDIUse=1 WtCom= 1.00D+00 WtEn= 0.00D+00
 Coeff-Com:  0.109D-03-0.213D-03-0.482D-03-0.760D-03 0.888D-03 0.743D-02
 Coeff-Com:  0.913D-02-0.172D-01-0.938D-01-0.128D+00 0.341D+00 0.881D+00
 Coeff:      0.109D-03-0.213D-03-0.482D-03-0.760D-03 0.888D-03 0.743D-02
 Coeff:      0.913D-02-0.172D-01-0.938D-01-0.128D+00 0.341D+00 0.881D+00
 Gap=     0.259 Goal=   None    Shift=    0.000
 RMSDP=2.84D-07 MaxDP=6.54D-06 DE=-8.67D-09 OVMax= 4.63D-05

 Cycle  13  Pass 1  IDiag  1:
 RMSU=  7.86D-08    CP:  9.89D-01  1.37D+00  9.51D-01  8.69D-01  1.28D+00
                    CP:  1.54D+00  1.45D+00  1.39D+00  1.72D+00  1.65D+00
                    CP:  1.49D+00  1.13D+00
 E= -1028.81447935003     Delta-E=       -0.000000001778 Rises=F Damp=F
 DIIS: error= 4.10D-07 at cycle  13 NSaved=  13.
 NSaved=13 IEnMin=13 EnMin= -1028.81447935003     IErMin=13 ErrMin= 4.10D-07
 ErrMax= 4.10D-07  0.00D+00 EMaxC= 1.00D-01 BMatC= 3.75D-11 BMatP= 4.83D-10
 IDIUse=1 WtCom= 1.00D+00 WtEn= 0.00D+00
 Coeff-Com: -0.798D-05 0.187D-04 0.120D-04-0.765D-04-0.234D-03 0.348D-03
 Coeff-Com:  0.377D-02 0.749D-02-0.943D-02-0.639D-01-0.552D-01 0.207D+00
 Coeff-Com:  0.910D+00
 Coeff:     -0.798D-05 0.187D-04 0.120D-04-0.765D-04-0.234D-03 0.348D-03
 Coeff:      0.377D-02 0.749D-02-0.943D-02-0.639D-01-0.552D-01 0.207D+00
 Coeff:      0.910D+00
 Gap=     0.259 Goal=   None    Shift=    0.000
 RMSDP=7.08D-08 MaxDP=1.91D-06 DE=-1.78D-09 OVMax= 1.03D-05

 Cycle  14  Pass 1  IDiag  1:
 RMSU=  2.67D-08    CP:  9.89D-01  1.37D+00  9.51D-01  8.69D-01  1.28D+00
                    CP:  1.54D+00  1.45D+00  1.39D+00  1.74D+00  1.68D+00
                    CP:  1.55D+00  1.30D+00  1.15D+00
 E= -1028.81447935016     Delta-E=       -0.000000000125 Rises=F Damp=F
 DIIS: error= 1.09D-07 at cycle  14 NSaved=  14.
 NSaved=14 IEnMin=14 EnMin= -1028.81447935016     IErMin=14 ErrMin= 1.09D-07
 ErrMax= 1.09D-07  0.00D+00 EMaxC= 1.00D-01 BMatC= 4.64D-12 BMatP= 3.75D-11
 IDIUse=1 WtCom= 1.00D+00 WtEn= 0.00D+00
 Coeff-Com: -0.104D-04 0.212D-04 0.400D-04 0.283D-04-0.138D-03-0.509D-03
 Coeff-Com:  0.539D-03 0.340D-02 0.467D-02-0.104D-01-0.408D-01 0.668D-03
 Coeff-Com:  0.304D+00 0.738D+00
 Coeff:     -0.104D-04 0.212D-04 0.400D-04 0.283D-04-0.138D-03-0.509D-03
 Coeff:      0.539D-03 0.340D-02 0.467D-02-0.104D-01-0.408D-01 0.668D-03
 Coeff:      0.304D+00 0.738D+00
 Gap=     0.259 Goal=   None    Shift=    0.000
 RMSDP=1.38D-08 MaxDP=4.50D-07 DE=-1.25D-10 OVMax= 1.59D-06

 Cycle  15  Pass 1  IDiag  1:
 RMSU=  9.11D-09    CP:  9.89D-01  1.37D+00  9.51D-01  8.69D-01  1.28D+00
                    CP:  1.54D+00  1.45D+00  1.39D+00  1.74D+00  1.68D+00
                    CP:  1.56D+00  1.33D+00  1.25D+00  1.06D+00
 E= -1028.81447935017     Delta-E=       -0.000000000011 Rises=F Damp=F
 DIIS: error= 5.26D-08 at cycle  15 NSaved=  15.
 NSaved=15 IEnMin=15 EnMin= -1028.81447935017     IErMin=15 ErrMin= 5.26D-08
 ErrMax= 5.26D-08  0.00D+00 EMaxC= 1.00D-01 BMatC= 9.59D-13 BMatP= 4.64D-12
 IDIUse=1 WtCom= 1.00D+00 WtEn= 0.00D+00
 Coeff-Com: -0.320D-05 0.598D-05 0.171D-04 0.295D-04-0.156D-04-0.321D-03
 Coeff-Com: -0.555D-03-0.405D-04 0.403D-02 0.847D-02-0.762D-02-0.469D-01
 Coeff-Com: -0.561D-01 0.286D+00 0.813D+00
 Coeff:     -0.320D-05 0.598D-05 0.171D-04 0.295D-04-0.156D-04-0.321D-03
 Coeff:     -0.555D-03-0.405D-04 0.403D-02 0.847D-02-0.762D-02-0.469D-01
 Coeff:     -0.561D-01 0.286D+00 0.813D+00
 Gap=     0.259 Goal=   None    Shift=    0.000
 RMSDP=8.64D-09 MaxDP=2.16D-07 DE=-1.09D-11 OVMax= 9.70D-07

 Error on total polarization charges =  0.00820
 SCF Done:  E(RwB97XD) =  -1028.81447935     A.U. after   15 cycles
            NFock= 15  Conv=0.86D-08     -V/T= 2.0050
 KE= 1.023695209067D+03 PE=-4.606538993326D+03 EE= 1.456821028809D+03
 Leave Link  502 at Tue Oct 27 22:00:15 2020, MaxMem=  7784628224 cpu:             869.1 elap:              94.9
 (Enter /gpfs/loomis/apps/avx/software/Gaussian/16-C.01_AVX/g16/l601.exe)
 Copying SCF densities to generalized density rwf, IOpCl= 0 IROHF=0.

 **********************************************************************

            Population analysis using the SCF Density.

 **********************************************************************

 Alpha  occ. eigenvalues --  -89.09632 -19.25825 -14.48237 -10.40521 -10.37495
 Alpha  occ. eigenvalues --  -10.35737 -10.35296 -10.32615 -10.32112 -10.32064
 Alpha  occ. eigenvalues --  -10.31905 -10.31754 -10.31706 -10.31622 -10.30030
 Alpha  occ. eigenvalues --  -10.29708  -8.11571  -6.06430  -6.06079  -6.05618
 Alpha  occ. eigenvalues --   -1.15038  -1.09231  -0.97038  -0.95444  -0.92214
 Alpha  occ. eigenvalues --   -0.88898  -0.85339  -0.83976  -0.82324  -0.75913
 Alpha  occ. eigenvalues --   -0.71214  -0.70545  -0.68764  -0.68235  -0.63479
 Alpha  occ. eigenvalues --   -0.60731  -0.59089  -0.58153  -0.55555  -0.54386
 Alpha  occ. eigenvalues --   -0.54326  -0.53275  -0.52711  -0.51117  -0.49834
 Alpha  occ. eigenvalues --   -0.49831  -0.47306  -0.46214  -0.45559  -0.44891
 Alpha  occ. eigenvalues --   -0.43995  -0.42853  -0.42374  -0.40450  -0.36543
 Alpha  occ. eigenvalues --   -0.35806  -0.32597  -0.31196  -0.27659
 Alpha virt. eigenvalues --   -0.01764   0.04669   0.06783   0.07065   0.07771
 Alpha virt. eigenvalues --    0.10754   0.13548   0.15011   0.16124   0.17862
 Alpha virt. eigenvalues --    0.18755   0.20861   0.21636   0.22293   0.22523
 Alpha virt. eigenvalues --    0.23608   0.24073   0.24473   0.28408   0.30161
 Alpha virt. eigenvalues --    0.32113   0.33118   0.35279   0.35983   0.36925
 Alpha virt. eigenvalues --    0.38169   0.38638   0.40649   0.43309   0.43616
 Alpha virt. eigenvalues --    0.47113   0.47789   0.49992   0.51550   0.51646
 Alpha virt. eigenvalues --    0.52308   0.53275   0.53909   0.54846   0.55314
 Alpha virt. eigenvalues --    0.56006   0.56149   0.56643   0.57377   0.58294
 Alpha virt. eigenvalues --    0.58386   0.58491   0.58929   0.59586   0.60234
 Alpha virt. eigenvalues --    0.60396   0.60707   0.62236   0.62248   0.63025
 Alpha virt. eigenvalues --    0.64817   0.65431   0.66748   0.67669   0.68981
 Alpha virt. eigenvalues --    0.70284   0.70293   0.72000   0.72630   0.72726
 Alpha virt. eigenvalues --    0.72937   0.74521   0.75281   0.76207   0.77383
 Alpha virt. eigenvalues --    0.79027   0.79288   0.79974   0.82076   0.82084
 Alpha virt. eigenvalues --    0.83064   0.88504   0.89284   0.91125   0.93120
 Alpha virt. eigenvalues --    0.94620   0.95091   0.96188   0.96272   0.96914
 Alpha virt. eigenvalues --    0.98468   0.98899   1.00077   1.00165   1.01615
 Alpha virt. eigenvalues --    1.02593   1.05098   1.06081   1.07407   1.07607
 Alpha virt. eigenvalues --    1.08181   1.08522   1.10004   1.11014   1.11905
 Alpha virt. eigenvalues --    1.12016   1.12355   1.13179   1.15102   1.15330
 Alpha virt. eigenvalues --    1.15959   1.19213   1.20213   1.22708   1.23526
 Alpha virt. eigenvalues --    1.26011   1.28141   1.33423   1.34036   1.34711
 Alpha virt. eigenvalues --    1.35012   1.36388   1.38385   1.41406   1.46750
 Alpha virt. eigenvalues --    1.48632   1.49113   1.50667   1.54193   1.55158
 Alpha virt. eigenvalues --    1.56354   1.56509   1.57184   1.58287   1.58586
 Alpha virt. eigenvalues --    1.59401   1.59753   1.64070   1.66489   1.66689
 Alpha virt. eigenvalues --    1.68703   1.69251   1.69702   1.70233   1.71084
 Alpha virt. eigenvalues --    1.71911   1.72569   1.73360   1.73517   1.75020
 Alpha virt. eigenvalues --    1.76941   1.78577   1.80343   1.80938   1.82512
 Alpha virt. eigenvalues --    1.83310   1.83609   1.84685   1.85022   1.85241
 Alpha virt. eigenvalues --    1.87474   1.88524   1.88538   1.89227   1.92164
 Alpha virt. eigenvalues --    1.92377   1.92850   1.93352   1.94741   1.95399
 Alpha virt. eigenvalues --    1.98755   2.00338   2.01979   2.03183   2.03952
 Alpha virt. eigenvalues --    2.04910   2.07857   2.09093   2.11037   2.13172
 Alpha virt. eigenvalues --    2.13900   2.17145   2.18454   2.20799   2.24210
 Alpha virt. eigenvalues --    2.26794   2.29885   2.32968   2.38864   2.40258
 Alpha virt. eigenvalues --    2.41045   2.41160   2.43459   2.45526   2.47233
 Alpha virt. eigenvalues --    2.48265   2.50732   2.52579   2.53185   2.62086
 Alpha virt. eigenvalues --    2.62615   2.71545   2.73632   2.74786   2.80330
 Alpha virt. eigenvalues --    2.81790   2.84084   2.85472   2.89987   2.93260
 Alpha virt. eigenvalues --    2.95261   3.03310   3.08889   3.20234   3.37489
 Alpha virt. eigenvalues --    3.47460   3.56841   3.62520   3.90462
          Condensed to atoms (all electrons):
               1          2          3          4          5          6
     1  C    4.730996   0.475881   0.004439  -0.051001  -0.013290   0.524260
     2  C    0.475881   5.316917   0.339880  -0.045598  -0.064708  -0.010748
     3  C    0.004439   0.339880   4.766947   0.504844  -0.005746  -0.063406
     4  C   -0.051001  -0.045598   0.504844   4.771695   0.524134  -0.015191
     5  C   -0.013290  -0.064708  -0.005746   0.524134   4.726446   0.493676
     6  C    0.524260  -0.010748  -0.063406  -0.015191   0.493676   4.741370
     7  H    0.402691  -0.039543   0.008488  -0.000499   0.008121  -0.038777
     8  H   -0.000754   0.011329  -0.028390   0.392938  -0.043067   0.007662
     9  H    0.008701  -0.000513   0.008488  -0.038882   0.404988  -0.044776
    10  H   -0.042054   0.009609  -0.000559   0.008702  -0.043562   0.406329
    11  N    0.006198  -0.055041   0.433977  -0.039917   0.003011   0.000196
    12  S   -0.063262   0.339953  -0.110657   0.005943   0.000240   0.003532
    13  C   -0.000169   0.003090   0.009179  -0.000741   0.000009   0.000001
    14  C   -0.000004   0.000070   0.000142   0.000006  -0.000000  -0.000000
    15  C    0.000002  -0.000327   0.000659   0.000075  -0.000000   0.000000
    16  C    0.000000  -0.000002   0.000004  -0.000000   0.000000   0.000000
    17  H   -0.000003   0.000062   0.000002  -0.000000   0.000000  -0.000000
    18  C    0.000000   0.000006  -0.000025  -0.000000  -0.000000   0.000000
    19  C   -0.000000   0.000000   0.000001  -0.000000   0.000000   0.000000
    20  H   -0.000000  -0.000000  -0.000000   0.000000   0.000000  -0.000000
    21  H   -0.000000  -0.000000   0.000001  -0.000000   0.000000   0.000000
    22  H    0.000000  -0.000000  -0.000000  -0.000000   0.000000  -0.000000
    23  C    0.003825  -0.051427  -0.117982   0.001197   0.000224  -0.000162
    24  O    0.000002  -0.000068  -0.001793  -0.000090  -0.000001  -0.000000
    25  H   -0.000035   0.004188  -0.013201  -0.001832  -0.000024   0.000010
               7          8          9         10         11         12
     1  C    0.402691  -0.000754   0.008701  -0.042054   0.006198  -0.063262
     2  C   -0.039543   0.011329  -0.000513   0.009609  -0.055041   0.339953
     3  C    0.008488  -0.028390   0.008488  -0.000559   0.433977  -0.110657
     4  C   -0.000499   0.392938  -0.038882   0.008702  -0.039917   0.005943
     5  C    0.008121  -0.043067   0.404988  -0.043562   0.003011   0.000240
     6  C   -0.038777   0.007662  -0.044776   0.406329   0.000196   0.003532
     7  H    0.657349   0.000033  -0.000145  -0.011971  -0.000114  -0.006677
     8  H    0.000033   0.651937  -0.012100  -0.000126  -0.002387  -0.000189
     9  H   -0.000145  -0.012100   0.664791  -0.012306  -0.000114   0.000022
    10  H   -0.011971  -0.000126  -0.012306   0.663423   0.000001  -0.000141
    11  N   -0.000114  -0.002387  -0.000114   0.000001   6.464091  -0.065905
    12  S   -0.006677  -0.000189   0.000022  -0.000141  -0.065905  15.455504
    13  C    0.000005   0.000051  -0.000000  -0.000000  -0.020467  -0.061322
    14  C    0.000000   0.000001   0.000000  -0.000000   0.003146  -0.006007
    15  C   -0.000000  -0.000019   0.000000   0.000000  -0.011721   0.003727
    16  C   -0.000000  -0.000000  -0.000000   0.000000  -0.000096  -0.000050
    17  H    0.000001   0.000000  -0.000000  -0.000000   0.000224   0.006278
    18  C   -0.000000  -0.000000  -0.000000  -0.000000  -0.000584  -0.000112
    19  C    0.000000   0.000000  -0.000000  -0.000000   0.000056   0.000021
    20  H   -0.000000  -0.000000   0.000000   0.000000   0.000001   0.000000
    21  H   -0.000000   0.000000  -0.000000   0.000000   0.000025   0.000003
    22  H    0.000000  -0.000000  -0.000000  -0.000000  -0.000000  -0.000000
    23  C    0.000090  -0.000831   0.000007   0.000004   0.531197   0.322660
    24  O   -0.000000  -0.000255   0.000000  -0.000000  -0.085030  -0.000338
    25  H    0.000002   0.001340  -0.000007   0.000000   0.164944   0.002839
              13         14         15         16         17         18
     1  C   -0.000169  -0.000004   0.000002   0.000000  -0.000003   0.000000
     2  C    0.003090   0.000070  -0.000327  -0.000002   0.000062   0.000006
     3  C    0.009179   0.000142   0.000659   0.000004   0.000002  -0.000025
     4  C   -0.000741   0.000006   0.000075  -0.000000  -0.000000  -0.000000
     5  C    0.000009  -0.000000  -0.000000   0.000000   0.000000  -0.000000
     6  C    0.000001  -0.000000   0.000000   0.000000  -0.000000   0.000000
     7  H    0.000005   0.000000  -0.000000  -0.000000   0.000001  -0.000000
     8  H    0.000051   0.000001  -0.000019  -0.000000   0.000000  -0.000000
     9  H   -0.000000   0.000000   0.000000  -0.000000  -0.000000  -0.000000
    10  H   -0.000000  -0.000000   0.000000   0.000000  -0.000000  -0.000000
    11  N   -0.020467   0.003146  -0.011721  -0.000096   0.000224  -0.000584
    12  S   -0.061322  -0.006007   0.003727  -0.000050   0.006278  -0.000112
    13  C    5.334277   0.473343   0.264037  -0.007574  -0.039581  -0.043428
    14  C    0.473343   4.804775   0.001552   0.530719   0.400925  -0.055257
    15  C    0.264037   0.001552   4.765862  -0.060754   0.007382   0.503463
    16  C   -0.007574   0.530719  -0.060754   4.755979  -0.034804  -0.019300
    17  H   -0.039581   0.400925   0.007382  -0.034804   0.675486  -0.000739
    18  C   -0.043428  -0.055257   0.503463  -0.019300  -0.000739   4.810511
    19  C   -0.050382  -0.017842  -0.010255   0.489252   0.008389   0.514643
    20  H    0.008898  -0.035968  -0.000222   0.401127  -0.012660   0.008362
    21  H    0.013247  -0.000528  -0.022854   0.007359   0.000045   0.377089
    22  H   -0.001189   0.009214   0.009055  -0.044689  -0.000164  -0.041211
    23  C    0.334590  -0.092119  -0.078633   0.007108  -0.019834   0.007199
    24  O   -0.083890   0.004528   0.542708  -0.000009  -0.000062  -0.059941
    25  H   -0.023680  -0.000613  -0.027088  -0.000019  -0.000010   0.004219
              19         20         21         22         23         24
     1  C   -0.000000  -0.000000  -0.000000   0.000000   0.003825   0.000002
     2  C    0.000000  -0.000000  -0.000000  -0.000000  -0.051427  -0.000068
     3  C    0.000001  -0.000000   0.000001  -0.000000  -0.117982  -0.001793
     4  C   -0.000000   0.000000  -0.000000  -0.000000   0.001197  -0.000090
     5  C    0.000000   0.000000   0.000000   0.000000   0.000224  -0.000001
     6  C    0.000000  -0.000000   0.000000  -0.000000  -0.000162  -0.000000
     7  H    0.000000  -0.000000  -0.000000   0.000000   0.000090  -0.000000
     8  H    0.000000  -0.000000   0.000000  -0.000000  -0.000831  -0.000255
     9  H   -0.000000   0.000000  -0.000000  -0.000000   0.000007   0.000000
    10  H   -0.000000   0.000000   0.000000  -0.000000   0.000004  -0.000000
    11  N    0.000056   0.000001   0.000025  -0.000000   0.531197  -0.085030
    12  S    0.000021   0.000000   0.000003  -0.000000   0.322660  -0.000338
    13  C   -0.050382   0.008898   0.013247  -0.001189   0.334590  -0.083890
    14  C   -0.017842  -0.035968  -0.000528   0.009214  -0.092119   0.004528
    15  C   -0.010255  -0.000222  -0.022854   0.009055  -0.078633   0.542708
    16  C    0.489252   0.401127   0.007359  -0.044689   0.007108  -0.000009
    17  H    0.008389  -0.012660   0.000045  -0.000164  -0.019834  -0.000062
    18  C    0.514643   0.008362   0.377089  -0.041211   0.007199  -0.059941
    19  C    4.722365  -0.047109  -0.045517   0.405689   0.000507   0.003356
    20  H   -0.047109   0.681947  -0.000164  -0.012160  -0.000354   0.000002
    21  H   -0.045517  -0.000164   0.666605  -0.012172  -0.000418   0.003829
    22  H    0.405689  -0.012160  -0.012172   0.667312   0.000004  -0.000072
    23  C    0.000507  -0.000354  -0.000418   0.000004   5.081730  -0.004113
    24  O    0.003356   0.000002   0.003829  -0.000072  -0.004113   7.701849
    25  H   -0.000252  -0.000001   0.000013   0.000010  -0.002094   0.274278
              25
     1  C   -0.000035
     2  C    0.004188
     3  C   -0.013201
     4  C   -0.001832
     5  C   -0.000024
     6  C    0.000010
     7  H    0.000002
     8  H    0.001340
     9  H   -0.000007
    10  H    0.000000
    11  N    0.164944
    12  S    0.002839
    13  C   -0.023680
    14  C   -0.000613
    15  C   -0.027088
    16  C   -0.000019
    17  H   -0.000010
    18  C    0.004219
    19  C   -0.000252
    20  H   -0.000001
    21  H    0.000013
    22  H    0.000010
    23  C   -0.002094
    24  O    0.274278
    25  H    0.405395
 Mulliken charges:
               1
     1  C    0.013575
     2  C   -0.233009
     3  C    0.264707
     4  C   -0.015781
     5  C    0.009549
     6  C   -0.003976
     7  H    0.020946
     8  H    0.022828
     9  H    0.021846
    10  H    0.022652
    11  N   -0.325689
    12  S    0.173936
    13  C   -0.108304
    14  C   -0.020085
    15  C    0.113351
    16  C   -0.024254
    17  H    0.009063
    18  C   -0.004895
    19  C    0.027077
    20  H    0.008300
    21  H    0.013435
    22  H    0.020374
    23  C    0.077625
    24  O   -0.294892
    25  H    0.211619
 Sum of Mulliken charges =  -0.00000
 Mulliken charges with hydrogens summed into heavy atoms:
               1
     1  C    0.034521
     2  C   -0.233009
     3  C    0.264707
     4  C    0.007047
     5  C    0.031395
     6  C    0.018676
    11  N   -0.325689
    12  S    0.173936
    13  C   -0.108304
    14  C   -0.011021
    15  C    0.113351
    16  C   -0.015954
    18  C    0.008540
    19  C    0.047451
    23  C    0.077625
    24  O   -0.083273
 Electronic spatial extent (au):  <R**2>=           4349.1870
 Charge=             -0.0000 electrons
 Dipole moment (field-independent basis, Debye):
    X=              0.2479    Y=             -3.1222    Z=             -0.0000  Tot=              3.1320
 Quadrupole moment (field-independent basis, Debye-Ang):
   XX=            -83.2682   YY=            -90.6526   ZZ=           -104.3337
   XY=             -6.9383   XZ=             -0.0001   YZ=              0.0001
 Traceless Quadrupole moment (field-independent basis, Debye-Ang):
   XX=              9.4833   YY=              2.0989   ZZ=            -11.5822
   XY=             -6.9383   XZ=             -0.0001   YZ=              0.0001
 Octapole moment (field-independent basis, Debye-Ang**2):
  XXX=             18.2371  YYY=            -28.7245  ZZZ=             -0.0000  XYY=             -4.1798
  XXY=             -1.2783  XXZ=              0.0000  XZZ=              1.3682  YZZ=              2.3477
  YYZ=              0.0005  XYZ=             -0.0006
 Hexadecapole moment (field-independent basis, Debye-Ang**3):
 XXXX=          -2608.9183 YYYY=          -2625.5198 ZZZZ=           -113.4325 XXXY=            808.7250
 XXXZ=              0.0097 YYYX=            765.7559 YYYZ=             -0.0119 ZZZX=              0.0132
 ZZZY=             -0.0184 XXYY=           -848.9034 XXZZ=           -572.3680 YYZZ=           -550.5183
 XXYZ=             -0.0030 YYXZ=              0.0004 ZZXY=            357.2217
 N-N= 1.097208276099D+03 E-N=-4.606538994079D+03  KE= 1.023695209067D+03
 No NMR shielding tensors so no spin-rotation constants.
 Leave Link  601 at Tue Oct 27 22:00:16 2020, MaxMem=  7784628224 cpu:               1.7 elap:               0.4
 (Enter /gpfs/loomis/apps/avx/software/Gaussian/16-C.01_AVX/g16/l701.exe)
 ... and contract with generalized density number  0.
 Compute integral first derivatives.
 R6Disp: Adding Grimme-D2 dispersion energy 1st derivatives to the gradient.
 D1PCM: PCM CHGder 1st derivatives, ID1Alg=3 FixD1E=F DoIter=F DoCFld=F I1PDM=0.
 GePol: Maximum number of non-zero 1st derivatives   =     268
 Leave Link  701 at Tue Oct 27 22:00:19 2020, MaxMem=  7784628224 cpu:              18.4 elap:               2.9
 (Enter /gpfs/loomis/apps/avx/software/Gaussian/16-C.01_AVX/g16/l702.exe)
 L702 exits ... SP integral derivatives will be done elsewhere.
 Leave Link  702 at Tue Oct 27 22:00:19 2020, MaxMem=  7784628224 cpu:               0.3 elap:               0.1
 (Enter /gpfs/loomis/apps/avx/software/Gaussian/16-C.01_AVX/g16/l703.exe)
 Integral derivatives from FoFJK, PRISM(SPDF).
 Compute integral first derivatives, UseDBF=F ICtDFT=           0.
 Calling FoFJK, ICntrl=      2127 FMM=F ISym2X=0 I1Cent= 0 IOpClX= 0 NMat=1 NMatS=1 NMatT=0.
 FoFJK:  IHMeth= 1 ICntrl=    2127 DoSepK=T KAlg= 0 I1Cent=           0 FoldK=F
 IRaf=         1 NMat=       1 IRICut=       1 DoRegI=T DoRafI=F ISym2E= 0 IDoP0=0 IntGTp=1.
 FoFCou: FMM=F IPFlag=           0 FMFlag=      100000 FMFlg1=         800
         NFxFlg=           0 DoJE=F BraDBF=F KetDBF=F FulRan=T
         wScrn=  0.000000 ICntrl=      2527 IOpCl=  0 I1Cent=           0 NGrid=           0
         NMat0=    1 NMatS0=      1 NMatT0=    0 NMatD0=    1 NMtDS0=    0 NMtDT0=    0
 Symmetry not used in FoFCou.
 Leave Link  703 at Tue Oct 27 22:00:34 2020, MaxMem=  7784628224 cpu:             137.1 elap:              15.2
 (Enter /gpfs/loomis/apps/avx/software/Gaussian/16-C.01_AVX/g16/l716.exe)
 Dipole        = 9.75405887D-02-1.22837476D+00-9.08019708D-06
 -------------------------------------------------------------------
 Center     Atomic                   Forces (Hartrees/Bohr)
 Number     Number              X              Y              Z
 -------------------------------------------------------------------
      1        6           0.003873921   -0.002907914    0.000000007
      2        6           0.005238107    0.010513522   -0.000000088
      3        6           0.014718382   -0.029888983   -0.000000228
      4        6          -0.009987188    0.001485039   -0.000000013
      5        6           0.000378482   -0.004446480    0.000000008
      6        6          -0.003701305    0.002744361   -0.000000014
      7        1           0.000258995    0.000113183   -0.000000038
      8        1          -0.000085174   -0.000232984   -0.000000002
      9        1          -0.000385408   -0.000050628   -0.000000001
     10        1          -0.000309096    0.000156109    0.000000009
     11        7          -0.049978499    0.005498242    0.000000558
     12       16           0.005681326    0.012002653    0.000000064
     13        6          -0.007702756    0.042511943    0.000000513
     14        6          -0.004839240    0.012027770    0.000000503
     15        6          -0.010966398   -0.028480583   -0.000000537
     16        6          -0.000118555   -0.009600355   -0.000000213
     17        1          -0.001115940   -0.000595779    0.000000020
     18        6          -0.008445267   -0.002898987    0.000000152
     19        6           0.012803719   -0.011060083   -0.000000404
     20        1           0.000381362   -0.000259885   -0.000000016
     21        1          -0.000334160   -0.000118693   -0.000000028
     22        1          -0.000291896    0.000420487   -0.000000053
     23        6           0.041375830   -0.009142340   -0.000000233
     24        8           0.021009807   -0.009503627   -0.000000349
     25        1          -0.007459049    0.021714014    0.000000384
 -------------------------------------------------------------------
 Cartesian Forces:  Max     0.049978499 RMS     0.011775802
 Leave Link  716 at Tue Oct 27 22:00:34 2020, MaxMem=  7784628224 cpu:               0.4 elap:               0.1
 (Enter /gpfs/loomis/apps/avx/software/Gaussian/16-C.01_AVX/g16/l103.exe)

 GradGradGradGradGradGradGradGradGradGradGradGradGradGradGradGradGradGrad
 Berny optimization.
 FormGI is forming the generalized inverse of G from B-inverse, IUseBI=4.
 Internal  Forces:  Max     0.038025050 RMS     0.005954356
 Search for a local minimum.
 Step number   1 out of a maximum of  143
 All quantities printed in internal units (Hartrees-Bohrs-Radians)
 RMS Force = .59996D-02 SwitMx=.10000D-02 MixMth= 1
 Mixed Optimization -- RFO/linear search
 Second derivative matrix not updated -- first step.
 ITU=  0
     Eigenvalues ---    0.01373   0.01376   0.01602   0.01672   0.01777
     Eigenvalues ---    0.01808   0.01832   0.01985   0.02004   0.02009
     Eigenvalues ---    0.02045   0.02049   0.02062   0.02064   0.02068
     Eigenvalues ---    0.02109   0.02117   0.02128   0.02139   0.02163
     Eigenvalues ---    0.02190   0.03085   0.16000   0.16000   0.16000
     Eigenvalues ---    0.16000   0.16000   0.16000   0.16000   0.16003
     Eigenvalues ---    0.16095   0.22000   0.22029   0.22524   0.22589
     Eigenvalues ---    0.24467   0.24556   0.25000   0.25000   0.25000
     Eigenvalues ---    0.27345   0.28898   0.29177   0.32303   0.34610
     Eigenvalues ---    0.34623   0.34646   0.34697   0.34700   0.34721
     Eigenvalues ---    0.34721   0.34780   0.37678   0.39788   0.41290
     Eigenvalues ---    0.42054   0.42247   0.43275   0.44069   0.44828
     Eigenvalues ---    0.45026   0.46122   0.46369   0.47775   0.50273
     Eigenvalues ---    0.53409   0.685461000.000001000.000001000.00000
     Eigenvalues --- 1000.000001000.000001000.000001000.000001000.00000
     Eigenvalues --- 1000.000001000.000001000.000001000.000001000.00000
     Eigenvalues --- 1000.000001000.000001000.000001000.000001000.00000
     Eigenvalues --- 1000.000001000.000001000.000001000.000001000.00000
     Eigenvalues --- 1000.000001000.000001000.000001000.000001000.00000
     Eigenvalues --- 1000.000001000.000001000.000001000.000001000.00000
     Eigenvalues --- 1000.000001000.000001000.000001000.000001000.00000
     Eigenvalues --- 1000.000001000.000001000.000001000.000001000.00000
     Eigenvalues --- 1000.000001000.000001000.000001000.000001000.00000
     Eigenvalues --- 1000.000001000.000001000.000001000.000001000.00000
     Eigenvalues --- 1000.000001000.000001000.000001000.000001000.00000
     Eigenvalues --- 1000.000001000.000001000.000001000.000001000.00000
     Eigenvalues --- 1000.000001000.000001000.00000
 RFO step:  Lambda=-1.15096729D-02 EMin= 1.37292211D-02
 Linear search not attempted -- first point.
 Iteration  1 RMS(Cart)=  0.02236126 RMS(Int)=  0.00023545
 Iteration  2 RMS(Cart)=  0.00040150 RMS(Int)=  0.00005414
 Iteration  3 RMS(Cart)=  0.00000019 RMS(Int)=  0.00005414
 Iteration  1 RMS(Cart)=  0.00000002 RMS(Int)=  0.00000001
 ITry= 1 IFail=0 DXMaxC= 9.75D-02 DCOld= 1.00D+10 DXMaxT= 3.00D-01 DXLimC= 3.00D+00 Rises=F
 Variable       Old X    -DE/DX   Delta X   Delta X   Delta X     New X
                                 (Linear)    (Quad)   (Total)
    R1        2.63229   0.00139   0.00000   0.00285   0.00286   2.63516
    R2        2.63781  -0.00465   0.00000  -0.00937  -0.00937   2.62843
    R3        2.06165  -0.00030   0.00000  -0.00082  -0.00082   2.06083
    R4        2.69194  -0.01642   0.00000  -0.03623  -0.03617   2.65577
    R5        3.32634  -0.00183   0.00000  -0.00393  -0.00387   3.32246
    R6        2.66817  -0.00909   0.00000  -0.02072  -0.02072   2.64745
    R7        2.54533   0.02190   0.00000   0.03892   0.03891   2.58424
    R8        2.61544   0.00183   0.00000   0.00376   0.00375   2.61918
    R9        2.06130  -0.00022   0.00000  -0.00061  -0.00061   2.06068
   R10        2.65923  -0.00332   0.00000  -0.00679  -0.00681   2.65242
   R11        2.06291  -0.00038   0.00000  -0.00107  -0.00107   2.06184
   R12        2.06169  -0.00031   0.00000  -0.00087  -0.00087   2.06082
   R13        2.56752  -0.03803   0.00000  -0.07163  -0.07170   2.49583
   R14        3.35526  -0.00899   0.00000  -0.03401  -0.03406   3.32120
   R15        2.65862   0.00013   0.00000   0.00021   0.00034   2.65896
   R16        2.80439  -0.02472   0.00000  -0.07020  -0.07017   2.73421
   R17        2.68234   0.01189   0.00000   0.02713   0.02712   2.70946
   R18        2.64589  -0.01662   0.00000  -0.03565  -0.03555   2.61034
   R19        2.06312   0.00094   0.00000   0.00263   0.00263   2.06575
   R20        2.66790  -0.00146   0.00000  -0.00313  -0.00322   2.66468
   R21        2.44664   0.01443   0.00000   0.02065   0.02065   2.46729
   R22        2.66416  -0.00659   0.00000  -0.01462  -0.01466   2.64950
   R23        2.06254  -0.00033   0.00000  -0.00091  -0.00091   2.06162
   R24        2.62896  -0.00604   0.00000  -0.01244  -0.01257   2.61639
   R25        2.06129  -0.00023   0.00000  -0.00064  -0.00064   2.06065
   R26        2.06033   0.00056   0.00000   0.00157   0.00157   2.06189
   R27        2.15725  -0.01764   0.00000  -0.05745  -0.05744   2.09982
    A1        2.06755  -0.00195   0.00000  -0.00621  -0.00619   2.06136
    A2        2.10990   0.00114   0.00000   0.00404   0.00403   2.11392
    A3        2.10574   0.00082   0.00000   0.00218   0.00217   2.10790
    A4        2.11286   0.00226   0.00000   0.00561   0.00559   2.11845
    A5        2.24997   0.00358   0.00000   0.01009   0.01003   2.26001
    A6        1.92035  -0.00584   0.00000  -0.01570  -0.01562   1.90473
    A7        2.08807   0.00233   0.00000   0.00595   0.00596   2.09403
    A8        1.99642  -0.00346   0.00000  -0.00824  -0.00819   1.98824
    A9        2.19869   0.00113   0.00000   0.00229   0.00222   2.20092
   A10        2.07199  -0.00041   0.00000  -0.00130  -0.00129   2.07070
   A11        2.08550   0.00023   0.00000   0.00080   0.00080   2.08630
   A12        2.12569   0.00018   0.00000   0.00050   0.00050   2.12618
   A13        2.11657  -0.00144   0.00000  -0.00384  -0.00386   2.11272
   A14        2.08415   0.00071   0.00000   0.00185   0.00185   2.08600
   A15        2.08246   0.00073   0.00000   0.00199   0.00200   2.08447
   A16        2.10932  -0.00079   0.00000  -0.00021  -0.00021   2.10911
   A17        2.08446   0.00028   0.00000  -0.00059  -0.00059   2.08387
   A18        2.08941   0.00051   0.00000   0.00081   0.00081   2.09021
   A19        1.98507   0.00455   0.00000   0.01382   0.01380   1.99888
   A20        1.55677   0.00432   0.00000   0.01486   0.01482   1.57160
   A21        2.04433   0.00985   0.00000   0.03778   0.03797   2.08230
   A22        2.19300  -0.00559   0.00000  -0.02130  -0.02132   2.17168
   A23        2.04585  -0.00426   0.00000  -0.01648  -0.01666   2.02920
   A24        2.11070   0.00150   0.00000   0.00620   0.00641   2.11710
   A25        2.08572   0.00011   0.00000   0.00192   0.00181   2.08753
   A26        2.08677  -0.00161   0.00000  -0.00811  -0.00822   2.07855
   A27        2.09447  -0.00997   0.00000  -0.03791  -0.03795   2.05652
   A28        2.09668   0.00998   0.00000   0.03780   0.03779   2.13447
   A29        2.09203  -0.00002   0.00000   0.00011   0.00016   2.09219
   A30        2.12482  -0.00899   0.00000  -0.03914  -0.03909   2.08573
   A31        2.07459   0.00427   0.00000   0.01825   0.01823   2.09282
   A32        2.08377   0.00472   0.00000   0.02088   0.02086   2.10463
   A33        2.10624   0.00182   0.00000   0.00807   0.00784   2.11408
   A34        2.04433  -0.00067   0.00000  -0.00262  -0.00250   2.04184
   A35        2.13261  -0.00115   0.00000  -0.00545  -0.00534   2.12727
   A36        2.08581   0.00579   0.00000   0.02500   0.02482   2.11062
   A37        2.09626  -0.00285   0.00000  -0.01223  -0.01214   2.08412
   A38        2.10112  -0.00294   0.00000  -0.01277  -0.01268   2.08844
   A39        1.96616   0.00043   0.00000  -0.00474  -0.00482   1.96134
   A40        2.09311  -0.00327   0.00000  -0.00926  -0.00930   2.08382
   A41        2.22391   0.00284   0.00000   0.01400   0.01412   2.23803
   A42        1.85080   0.00418   0.00000   0.02429   0.02429   1.87508
    D1        0.00000   0.00000   0.00000   0.00000   0.00000   0.00000
    D2       -3.14159   0.00000   0.00000   0.00000   0.00000  -3.14159
    D3        3.14159   0.00000   0.00000   0.00000   0.00000   3.14159
    D4       -0.00000   0.00000   0.00000   0.00000   0.00000   0.00000
    D5       -0.00000   0.00000   0.00000   0.00000   0.00000   0.00000
    D6        3.14159   0.00000   0.00000  -0.00000  -0.00000   3.14159
    D7       -3.14159   0.00000   0.00000   0.00000   0.00000  -3.14159
    D8        0.00000  -0.00000   0.00000  -0.00000  -0.00000   0.00000
    D9       -0.00000  -0.00000   0.00000  -0.00000  -0.00000  -0.00000
   D10        3.14159  -0.00000   0.00000  -0.00000  -0.00000   3.14159
   D11        3.14159  -0.00000   0.00000  -0.00000  -0.00000   3.14159
   D12       -0.00000  -0.00000   0.00000  -0.00000  -0.00000  -0.00000
   D13        3.14159   0.00000   0.00000   0.00000   0.00000  -3.14159
   D14       -0.00000   0.00000   0.00000   0.00001   0.00001   0.00000
   D15       -0.00000   0.00000   0.00000   0.00000   0.00000   0.00000
   D16        3.14159   0.00000   0.00000   0.00000   0.00000  -3.14159
   D17       -3.14159   0.00000   0.00000   0.00000   0.00000  -3.14159
   D18        0.00000   0.00000   0.00000   0.00000   0.00000   0.00000
   D19        0.00000  -0.00000   0.00000  -0.00000  -0.00000   0.00000
   D20       -3.14159  -0.00000   0.00000  -0.00000  -0.00000  -3.14159
   D21        0.00000   0.00000   0.00000   0.00000   0.00000   0.00000
   D22       -3.14159  -0.00000   0.00000  -0.00000  -0.00000   3.14159
   D23       -3.14159   0.00000   0.00000   0.00000   0.00000  -3.14159
   D24        0.00000   0.00000   0.00000   0.00000   0.00000   0.00000
   D25        0.00000  -0.00000   0.00000  -0.00000  -0.00000  -0.00000
   D26       -3.14159  -0.00000   0.00000  -0.00000  -0.00000  -3.14159
   D27        3.14159  -0.00000   0.00000  -0.00000  -0.00000   3.14159
   D28        0.00000   0.00000   0.00000   0.00000   0.00000   0.00000
   D29       -0.00001   0.00000   0.00000   0.00001   0.00001   0.00000
   D30        3.14158   0.00000   0.00000   0.00001   0.00001   3.14159
   D31        0.00000  -0.00000   0.00000  -0.00001  -0.00001  -0.00000
   D32       -3.14158  -0.00000   0.00000  -0.00001  -0.00001  -3.14159
   D33       -0.00000  -0.00000   0.00000  -0.00000  -0.00000  -0.00001
   D34        3.14159  -0.00000   0.00000  -0.00000  -0.00000   3.14159
   D35        3.14159  -0.00000   0.00000  -0.00000  -0.00000   3.14158
   D36       -0.00001  -0.00000   0.00000  -0.00000  -0.00000  -0.00001
   D37        0.00000   0.00000   0.00000   0.00000   0.00000   0.00001
   D38       -3.14159   0.00000   0.00000   0.00001   0.00001  -3.14158
   D39       -3.14159   0.00000   0.00000   0.00000   0.00000  -3.14158
   D40        0.00000   0.00000   0.00000   0.00001   0.00001   0.00001
   D41        3.14158   0.00000   0.00000   0.00001   0.00001   3.14159
   D42       -0.00002   0.00000   0.00000   0.00001   0.00001  -0.00001
   D43       -0.00001   0.00000   0.00000   0.00001   0.00001  -0.00001
   D44        3.14157   0.00000   0.00000   0.00001   0.00001   3.14158
   D45        0.00000  -0.00000   0.00000  -0.00000  -0.00000   0.00000
   D46       -3.14159  -0.00000   0.00000  -0.00000  -0.00000  -3.14159
   D47       -3.14159  -0.00000   0.00000  -0.00000  -0.00000   3.14159
   D48        0.00000  -0.00000   0.00000  -0.00000  -0.00000  -0.00000
   D49       -0.00000  -0.00000   0.00000  -0.00000  -0.00000  -0.00000
   D50        3.14159   0.00000   0.00000   0.00000   0.00000   3.14159
[...]
 .00000005,0.00000003,-0.00001598,0.,0.,-0.00000095,0.,0.,0.00000112,0.
 ,0.,0.00001632,0.,0.,-0.00002347,-0.00000111,-0.00000032,0.00024024,0.
 00000013,0.00000021,-0.00067532,-0.00000736,0.00000059,0.00816845,-0.0
 0001826,0.00002438,-0.06336898,-0.00000125,0.00000530,-0.00492948,0.00
 004479,-0.00004003,0.12606609,0.00025664,0.00004126,-0.00000002,-0.000
 62333,0.00028250,0.00000020,0.00031066,-0.00012100,-0.00000003,0.00002
 081,0.00003964,-0.00000002,0.00004238,0.00005857,0.,-0.00006514,-0.000
 08380,0.,-0.00001586,-0.00000771,0.,0.00003657,0.00000490,0.,0.0000097
 8,-0.00000047,0.,0.00002916,-0.00000538,0.,0.00026316,0.00050489,0.000
 00019,-0.00065599,0.00146648,-0.00000027,-0.00556796,-0.02861874,0.000
 00089,-0.09610730,-0.09582309,0.00000019,-0.00513263,0.00187284,-0.000
 00094,0.01132915,0.01894490,-0.00000049,0.09733498,0.00002063,-0.00004
 647,0.,-0.00016125,0.00049668,0.00000005,0.00025714,-0.00010852,0.,0.0
 0002221,0.00005316,0.,0.00001029,0.00005998,0.,-0.00008029,0.00000949,
 0.,-0.00000842,0.00001244,0.,0.00001794,-0.00000428,0.,-0.00000483,0.0
 0000336,0.,-0.00000299,0.00000206,0.,-0.00065196,0.00019116,0.00000011
 ,-0.00024883,-0.00003093,-0.00000013,0.00087346,-0.00093821,0.00000009
 ,-0.09403217,-0.30203354,0.00000450,0.00028783,0.00207876,0.00000025,-
 0.01304771,-0.01661617,-0.00000002,0.10162678,0.31964014,0.00000004,-0
 .00000003,-0.00000550,-0.00000014,0.00000002,-0.00051696,0.00000002,0.
 00000004,0.00019633,0.00000004,-0.00000002,0.00008221,0.,0.00000004,-0
 .00002269,-0.00000004,-0.00000002,0.00002503,0.,0.,-0.00001123,0.,0.,-
 0.00001590,0.,0.,-0.00000609,0.,0.,0.00001673,0.00000015,0.00000004,-0
 .00013532,-0.00000013,-0.00000013,0.00079877,-0.00000114,-0.00000238,0
 .00316160,0.00000077,0.00000301,-0.03763142,-0.00000061,0.00000078,0.0
 0618508,0.00000068,0.00000385,0.00490074,0.00000090,-0.00000513,0.0250
 0988,-0.00005330,0.00071208,-0.00000010,0.00074018,-0.00004171,-0.0000
 0006,0.00212009,-0.00005905,0.00000034,-0.00072999,-0.00000125,0.00000
 011,-0.00001168,-0.00076528,-0.00000004,0.00069968,0.00004408,-0.00000
 003,-0.00006481,0.00002240,0.,0.00010856,0.00000886,0.00000001,0.00004
 138,-0.00001929,0.,0.00004161,0.00000226,0.,0.00347709,0.01052646,0.00
 000439,0.00003026,-0.00018344,-0.00000018,0.05735309,0.02426568,0.0000
 0072,-0.06050251,0.02733792,-0.00000566,-0.16959436,0.05070263,-0.0000
 1420,-0.00861773,-0.08680359,0.00000456,-0.00074289,0.00054057,0.00000
 051,0.73363984,0.00055495,-0.00046057,0.,-0.00126900,-0.00012042,0.000
 00005,-0.00059281,0.00005854,-0.00000028,0.00060055,-0.00004161,-0.000
 00007,0.00007143,0.00071756,0.00000003,-0.00068966,-0.00015058,0.00000
 004,0.00000750,0.00002722,0.,-0.00001398,-0.00000985,0.,-0.00003245,0.
 00002255,0.,0.00000164,0.00000220,0.,-0.00198777,-0.00230636,-0.000001
 01,0.00164273,-0.00011434,-0.00000010,-0.00423795,-0.03484307,0.000002
 36,0.02172385,-0.01221082,0.00000232,0.10802854,-0.25383933,0.00002506
 ,-0.03615113,0.02041148,-0.00000314,0.00028100,0.00052306,-0.00000044,
 0.05341790,0.71621373,-0.00000013,0.00000024,-0.00013775,0.00000035,-0
 .00000021,-0.00011527,0.00000015,0.00000045,-0.00085691,-0.00000013,0.
 ,0.00003948,-0.00000005,-0.00000023,0.00001821,0.00000026,0.,0.0000298
 4,-0.00000002,0.,-0.00003844,0.00000004,0.,-0.00002795,0.00000001,0.,-
 0.00001066,0.,0.,0.00003671,0.00000054,0.00000062,0.00177084,-0.000000
 02,0.00000047,-0.00036912,0.00000353,0.00000329,0.00822762,-0.00000546
 ,0.00000308,-0.00305570,-0.00001595,0.00002150,-0.07148472,0.00000067,
 -0.00000732,0.00805130,0.00000001,-0.00000008,-0.00079521,0.00005482,-
 0.00003428,0.12469870,0.00061066,-0.00097962,0.00000005,-0.00159156,0.
 00052215,0.00000010,-0.00091683,-0.00017459,-0.00000033,0.00096964,-0.
 00003900,-0.00000011,0.00005004,0.00120945,0.00000006,-0.00122624,-0.0
 0011210,0.00000007,0.00005225,0.00004403,0.,-0.00005142,-0.00003885,-0
 .00000001,-0.00008764,0.00004670,0.00000001,-0.00005407,0.00002220,0.,
 -0.00461140,-0.00495885,-0.00000192,0.00144002,0.00083784,0.00000001,-
 0.04368421,-0.01591756,-0.00000149,0.06516659,-0.00933205,0.00000483,-
 0.05224629,0.06127388,-0.00000898,-0.15719991,-0.03562380,-0.00000320,
 -0.00215519,0.00433733,-0.00000153,-0.37524464,-0.07605342,-0.00001987
 ,0.72902163,0.00029364,-0.00047573,0.00000004,-0.00059588,0.00034691,0
 .00000007,-0.00019604,-0.00075917,-0.00000007,0.00024045,0.00006216,-0
 .00000005,0.00003113,0.00045449,0.00000002,-0.00055338,-0.00000109,0.0
 0000003,0.00003092,0.00000941,0.,-0.00002555,-0.00001294,0.,-0.0000411
 5,0.00002143,0.,-0.00002348,0.00000937,0.,-0.00493247,-0.00390024,-0.0
 0000168,0.00072469,0.00059633,0.00000010,-0.03982835,-0.01942387,-0.00
 000054,0.04763702,-0.06021485,0.00000769,0.00906957,0.05963947,-0.0000
 0284,-0.11022508,-0.30646770,0.00001247,0.00340984,-0.00234803,0.00000
 045,-0.00443658,-0.13962140,0.00000334,-0.03049316,0.71621209,0.000000
 05,-0.00000008,0.00000719,-0.00000012,0.00000005,0.00003318,-0.0000000
 5,0.,0.00024876,0.00000009,0.,0.00000333,0.,0.00000010,-0.00001869,-0.
 00000010,-0.00000001,0.00000229,0.,0.,0.00000314,-0.00000001,0.,0.0000
 1127,0.,0.,-0.00000107,0.,0.,-0.00000744,-0.00000002,0.00000002,-0.000
 37921,0.00000008,-0.00000002,0.00000290,-0.00000059,-0.00000021,-0.004
 08568,0.00000190,0.00000354,0.00696971,-0.00000575,0.00000149,-0.00062
 020,0.00000201,0.00001897,-0.06328905,-0.00000096,0.00000080,0.0075268
 7,-0.00002205,-0.00000147,-0.05889635,0.00004468,-0.00004624,0.1437187
 0,0.00002029,-0.00007472,0.,-0.00006450,0.00012473,0.,-0.00003207,-0.0
 0006780,0.00000002,0.00005050,0.00003036,0.,-0.00000951,0.00006787,0.,
 -0.00008115,0.00000840,0.,0.00000402,0.00000847,0.,0.00000116,-0.00000
 607,0.,-0.00001095,0.00000674,0.,-0.00000927,0.00000530,0.,-0.00043270
 ,0.00032519,0.00000004,0.00002719,0.00006239,0.,0.00010248,0.00362317,
 -0.00000074,-0.01373627,-0.00681613,-0.00000066,0.00051737,0.00013581,
 0.00000010,-0.34162278,-0.04406453,-0.00001991,0.00076141,0.00008144,0
 .00000038,0.00139295,-0.00202466,-0.00000020,-0.00651751,0.00260142,-0
 .00000087,0.35968474,-0.00000231,0.00002857,0.,0.00003308,-0.00006389,
 -0.00000001,0.00009042,0.00005687,-0.00000004,-0.00001622,-0.00003982,
 0.,0.00001248,-0.00001949,0.,0.00002780,-0.00000498,0.,-0.00000070,-0.
 00000375,0.,0.00000132,0.00000225,0.,0.00000480,-0.00000462,0.,0.00000
 353,-0.00000163,0.,0.00040730,-0.00019016,0.00000003,0.00000534,0.0000
 4201,0.,0.00233129,-0.00362897,0.00000086,0.02553237,0.00718369,0.0000
 0152,0.00043686,-0.00151217,0.00000011,-0.04471631,-0.06453776,-0.0000
 0092,-0.00030280,0.00095613,-0.00000039,-0.00095737,-0.00502345,0.0000
 0082,-0.02958267,0.00062583,-0.00000216,0.04710154,0.06424600,0.,0.,-0
 .00000308,0.00000002,0.,-0.00002673,-0.00000002,0.,-0.00022219,0.,0.00
 000001,-0.00001135,0.,-0.00000001,0.00001885,0.,0.,-0.00000442,0.,0.,0
 .00000030,0.,0.,-0.00000654,0.,0.,0.00000387,0.,0.,0.00000451,-0.00000
 003,0.00000018,-0.00015934,-0.00000003,-0.00000002,0.00004567,-0.00000
 053,0.00000056,0.00731030,-0.00000280,-0.00000094,0.00139775,0.0000003
 1,0.00000010,-0.00074254,-0.00002023,-0.00000143,-0.03259496,0.0000004
 1,-0.00000020,-0.00461057,-0.00000091,0.00000097,0.00609815,0.00000226
 ,0.00000079,0.00141604,0.00002167,0.00000059,0.02470246,-0.00005248,-0
 .00000472,0.,0.00004536,0.00008260,0.00000001,-0.00004820,-0.00000997,
 0.,-0.00001186,0.00000593,0.,-0.00000831,-0.00002408,0.,0.00002274,0.0
 0001369,0.,0.00000247,-0.00000383,0.,-0.00000707,0.00000166,0.,0.00000
 123,-0.00000040,0.,-0.00000327,-0.00000158,0.,0.00020070,-0.00034879,-
 0.00000018,-0.00025841,0.00005647,0.00000003,-0.00205649,0.00259884,-0
 .00000087,-0.00125263,0.00058560,-0.00000006,0.00997706,0.01955202,-0.
 00000081,-0.00516755,0.00025891,-0.00000115,0.00009315,-0.00009276,0.0
 0000009,-0.09595386,-0.09935114,-0.00000032,-0.00523179,-0.02920787,0.
 00000091,-0.00044164,-0.00139004,0.00000011,0.09696741,0.00002800,0.00
 009502,0.,-0.00003483,-0.00014303,0.,0.00009744,0.00009049,0.00000002,
 -0.00004674,-0.00001717,0.,0.00001248,-0.00005808,0.,0.00006688,-0.000
 02064,0.,-0.00000736,-0.00000006,0.,0.00000833,0.00000392,0.,0.0000097
 1,-0.00000473,0.,0.00001194,-0.00000280,0.,0.00010980,0.00055018,0.000
 00015,0.00022418,-0.00024988,0.,0.00383069,-0.00245073,0.00000075,0.00
 108692,0.00032369,0.,-0.01419787,-0.01783191,-0.00000022,-0.00034158,0
 .00210408,0.00000025,-0.00007030,-0.00006557,-0.00000007,-0.09801927,-
 0.30771031,0.00000649,0.00193949,0.00025056,0.00000030,0.00008307,-0.0
 0008439,0.00000001,0.10706720,0.32321783,0.,0.,0.00002218,0.00000001,0
 .00000004,-0.00001321,0.00000001,-0.00000001,-0.00003256,0.,0.,0.00000
 143,0.,0.,-0.00000279,0.,0.,0.00000065,0.,0.,0.00000181,0.,0.,0.000003
 61,0.,0.,0.00000255,0.,0.,-0.00000343,0.00000012,-0.00000010,0.0000396
 4,-0.00000008,0.00000004,-0.00003044,-0.00000067,0.00000111,0.00535268
 ,-0.00000102,0.00000014,-0.00083596,0.00000251,0.00000203,0.00474125,-
 0.00000079,-0.00000046,0.00773438,0.00000007,-0.00000004,-0.00081082,-
 0.00000226,0.00000632,-0.03450511,0.00000041,-0.00000174,0.00234494,-0
 .00000007,-0.00000007,0.00048930,0.00000062,-0.00000686,0.02443692,0.0
 0002255,-0.00003781,0.,-0.00003703,0.00010530,0.,0.00010214,-0.0000642
 4,-0.00000001,0.00002061,0.00000990,0.,-0.00000142,0.00004049,0.,-0.00
 004974,0.00000491,0.,0.00000108,0.00000508,0.,0.00000419,-0.00000372,0
 .,-0.00000723,0.00000370,0.,-0.00000486,0.00000363,0.,-0.00013165,0.00
 030938,0.00000016,0.00000695,0.00018265,-0.00000002,-0.00086277,-0.000
 46662,0.00000003,0.00061856,-0.00285369,-0.00000014,-0.00414632,-0.002
 72324,-0.00000086,0.01022547,-0.01025232,0.00000131,0.00037660,-0.0005
 4716,0.00000005,-0.01287980,0.02595114,-0.00000305,-0.16937934,0.13802
 701,-0.00001905,0.00067089,0.00040320,0.00000021,0.00105665,-0.0002365
 7,0.00000053,0.17561342,0.00001698,0.00002148,0.,-0.00005851,-0.000002
 24,0.,0.00000063,0.00003453,0.,-0.00000333,-0.00000533,0.,0.00000725,-
 0.00000785,0.,0.00001250,-0.00001186,0.,-0.00000375,-0.00000267,0.,0.0
 0000168,0.00000293,0.,0.00000523,-0.00000184,0.,0.00000595,-0.00000308
 ,0.,0.00012479,-0.00011989,-0.00000005,-0.00003876,-0.00000560,0.,-0.0
 0088534,0.00031025,-0.00000018,-0.00340013,-0.00452071,0.00000054,-0.0
 0230015,0.00105786,0.00000035,0.02101372,-0.01533475,0.00000300,0.0009
 8125,-0.00106526,0.00000012,-0.00567945,0.00662037,-0.00000046,0.13850
 626,-0.23354770,0.00002422,-0.00016758,0.00101531,-0.00000034,0.000185
 25,0.00072153,-0.00000037,-0.14855956,0.24433137,0.00000002,-0.0000000
 3,-0.00001367,-0.00000004,0.00000003,-0.00004874,0.,-0.00000006,0.0001
 5290,0.,0.,0.00000375,0.,0.00000002,-0.00000581,-0.00000003,0.,-0.0000
 0219,0.,0.,0.00000452,0.,0.,0.00000104,0.,0.,0.00000019,0.,0.,0.000004
 81,-0.00000004,0.00000013,-0.00026596,0.,-0.00000005,0.00017831,0.0000
 0014,-0.00000020,-0.00105445,0.00000020,0.00000064,0.00642237,-0.00000
 112,0.00000025,0.00903250,-0.00000136,0.00000126,0.00459758,-0.0000000
 7,0.00000007,-0.00018463,-0.00000127,0.00000157,0.00496024,-0.00001898
 ,0.00002375,-0.04089774,0.00000036,-0.00000033,-0.00357585,0.00000056,
 -0.00000032,-0.00482765,0.00002125,-0.00002675,0.02686279,-0.00414508,
 -0.00580072,0.00000006,-0.00303923,0.01768416,0.00000072,-0.08694935,0
 .04327660,0.00000815,0.01518945,-0.00332557,-0.00000042,-0.00359038,0.
 00867477,0.00000017,-0.00397423,-0.00513203,0.00000032,0.00034537,-0.0
 0098641,-0.00000009,-0.00042431,-0.00015474,0.00000011,0.00026209,0.00
 004177,-0.00000007,-0.00072997,-0.00009920,0.00000003,-0.42981955,-0.0
 6008299,0.00002987,-0.04983530,-0.02860006,-0.00000025,-0.15039620,0.0
 6931207,-0.00000506,-0.04240522,0.03201287,-0.00000191,0.03868069,0.01
 237176,0.00000392,-0.00075652,-0.01760337,0.00000122,0.00092506,0.0011
 3999,-0.00000015,-0.00676110,0.00051681,-0.00000037,0.00748417,0.00627
 576,0.00000023,-0.00024737,0.00083985,-0.00000029,0.00032209,-0.001300
 77,0.00000006,0.00031010,-0.00000163,-0.00000003,0.74528799,0.00234328
 ,-0.00273491,-0.00000032,0.02819326,-0.02588039,-0.00000239,0.01340703
 ,0.00934581,-0.00000153,0.00846289,-0.00882549,-0.00000085,-0.00175495
 ,0.00625040,0.00000023,-0.00369233,-0.00464453,0.00000019,0.00026295,-
 0.00078607,-0.00000006,-0.00049291,0.00005391,0.00000007,0.00022403,-0
 .00035165,0.,-0.00043197,0.00005218,0.00000004,-0.08143074,-0.13712670
 ,-0.00000084,0.00120951,-0.14878251,-0.00000263,0.06212285,-0.18855928
 ,0.00000210,0.01934345,0.00580356,-0.00000010,0.00814348,-0.03829607,-
 0.00000070,-0.00710713,0.01451451,-0.00000156,-0.00198863,-0.00029798,
 0.00000015,0.00217106,-0.00861410,0.00000059,-0.00939084,-0.00669501,-
 0.00000035,-0.00105198,0.00078701,-0.00000009,0.00122111,-0.00047764,0
 .00000037,-0.00035846,0.00014027,-0.00000002,-0.04076230,0.52893962,-0
 .00000044,0.00000099,0.00003927,0.00000283,-0.00000179,0.00430153,0.00
 000588,-0.00000374,0.00380112,-0.00000187,0.00000051,0.00298725,0.0000
 0022,-0.00000154,0.00065591,0.00000122,0.00000057,0.00088830,-0.000000
 06,0.00000004,-0.00044016,-0.00000002,0.00000003,-0.00034665,-0.000000
 02,-0.00000002,-0.00048212,0.00000005,0.,-0.00004071,0.00002454,0.0000
 0533,-0.06557425,-0.00000069,-0.00000018,-0.03704343,0.00000109,-0.000
 00328,-0.05393347,-0.00000105,0.00000173,-0.00365815,-0.00000038,0.000
 00193,0.00344184,-0.00000099,-0.00000046,0.00662208,0.00000018,-0.0000
 0021,-0.00333120,-0.00000018,0.00000096,0.00437231,0.00000040,-0.00000
 022,-0.00096028,-0.00000014,0.00000020,0.00113061,0.00000001,0.0000000
 7,-0.00013229,0.00000007,-0.00000005,-0.00074659,-0.00002684,0.0000038
 4,0.13772438,-0.00057649,0.00251351,-0.00000022,0.00223663,0.00185002,
 -0.00000015,0.01138087,-0.00091410,0.00000047,-0.00248843,0.00033928,0
 .00000035,-0.00008914,-0.00251762,-0.00000007,0.00231620,0.00051395,-0
 .00000013,-0.00022376,0.00020885,0.00000001,0.00033241,-0.00002666,0.0
 0000007,0.00000629,-0.00000055,-0.00000001,0.00005149,0.00007504,0.000
 00003,0.01744154,0.05620006,0.00001767,-0.00026360,0.00103890,-0.00000
 006,-0.01983923,-0.04160348,-0.00000563,-0.00940658,0.00383847,-0.0000
 0097,-0.38385566,-0.06652343,-0.00004138,-0.00578702,-0.01710627,0.000
 00086,-0.00128772,-0.00055149,0.00000010,-0.07018405,0.01421857,-0.000
 01486,0.01820884,0.01270467,0.00000005,-0.00009059,-0.00029219,-0.0000
 0019,0.00205128,-0.00060067,0.00000066,-0.00144714,0.00038227,0.000000
 27,-0.03340761,0.01915715,0.00000052,0.53709516,-0.00074886,-0.0012605
 9,0.00000044,0.00045596,-0.00438572,0.00000004,-0.01504291,-0.00419160
 ,-0.00000325,0.00020809,-0.00063490,0.,0.00058396,0.00074191,0.0000000
 2,-0.00045552,-0.00020567,-0.00000001,0.00025257,-0.00040650,-0.000000
 02,0.00004968,0.00022712,-0.00000011,0.00018713,-0.00014866,-0.0000000
 2,0.00010315,-0.00010504,-0.00000003,0.02200123,-0.08955548,-0.0000211
 3,-0.00097994,-0.00483482,0.00000017,-0.04733271,-0.00182301,-0.000004
 48,0.01019407,-0.00857268,0.00000096,-0.05845550,-0.12499893,0.0000025
 1,-0.00112574,0.01043613,-0.00000085,-0.00145307,-0.00013491,0.0000000
 5,0.05088260,0.01397896,0.00000474,-0.00632203,-0.01282136,0.00000032,
 -0.00002025,0.00054764,0.00000002,-0.00195042,0.00251896,-0.00000038,0
 .00185519,0.00019151,0.00000003,0.01502341,0.00237853,-0.00000028,0.00
 780362,0.36226618,-0.00000010,0.00000028,-0.00023557,0.00000039,0.0000
 0071,-0.00024561,0.00000296,-0.00000178,0.00177980,-0.00000066,0.00000
 014,0.00013959,0.00000006,-0.00000049,-0.00005857,0.00000031,0.0000002
 4,0.00004983,-0.00000002,0.00000004,0.00000536,0.,0.,0.00000242,-0.000
 00001,0.,-0.00001185,0.,0.00000001,-0.00000170,0.00000394,0.00000891,0
 .00956196,-0.00000054,-0.00000101,-0.00068426,0.00000029,-0.00000570,0
 .01458055,-0.00000446,0.00000098,0.00650392,-0.00004884,-0.00000202,-0
 .05851353,0.00000038,-0.00000433,-0.00095858,-0.00000030,-0.00000003,0
 .00019568,-0.00001707,0.00000103,0.00969570,0.00000295,0.00000431,0.00
 523194,0.,-0.00000017,-0.00067062,0.00000099,-0.00000048,-0.00360125,-
 0.00000047,-0.00000002,-0.00033110,-0.00000867,0.00000513,-0.00266844,
 0.00007838,-0.00002964,0.05030605,0.00036086,-0.00052737,-0.00000011,-
 0.00208472,0.00019279,0.00000017,-0.00083038,0.00611034,0.00000199,0.0
 0109274,-0.00002856,-0.00000026,-0.00000988,0.00053081,-0.00000012,-0.
 00052184,-0.00015541,0.00000006,0.00001862,0.00000770,0.,-0.00051005,-
 0.00007313,0.00000014,0.00003782,-0.00002674,0.00000002,-0.00000808,-0
 .00006553,0.,-0.03187200,-0.01841365,-0.00001110,-0.00197781,-0.003179
 73,0.00000101,-0.00102215,0.00509517,0.00000060,0.00142602,0.00062392,
 -0.00000003,-0.04911232,0.03188508,-0.00001619,0.00071631,0.00251937,-
 0.00000007,0.00056452,0.00021427,0.00000003,0.00169598,-0.00461265,0.0
 0000003,-0.00280579,-0.00048712,-0.00000043,0.00006335,0.00002944,0.00
 000004,-0.00024659,0.00027984,-0.00000008,-0.00008192,-0.00014558,0.00
 000012,0.00767437,-0.01779979,-0.00000431,-0.06217369,0.02428630,-0.00
 000951,0.13960664,0.00038370,0.00219580,-0.00000057,0.00163908,0.00642
 755,-0.00000101,0.02252574,-0.00252993,0.00000293,-0.00186743,0.001868
 18,0.00000048,-0.00081754,-0.00211628,0.00000006,0.00131645,0.00083733
 ,0.00000001,-0.00034154,0.00054353,-0.00000001,0.00023614,-0.00030992,
 0.00000003,-0.00030437,0.00024398,0.,-0.00012480,0.00017331,0.00000002
 ,-0.00625311,0.01383175,0.00002451,0.00165914,0.00845386,-0.00000227,0
 .00463559,-0.01702213,0.00000151,-0.00874923,0.00026494,0.00000014,0.0
 6163589,0.02207308,0.00000653,-0.00084312,-0.01160660,0.00000070,-0.00
 103987,-0.00033657,0.00000005,-0.02366822,0.00649053,-0.00000303,0.010
 27922,0.00806102,0.00000072,0.00002780,-0.00037625,-0.00000022,0.00075
 633,-0.00075934,-0.00000001,-0.00079819,0.00018137,0.,-0.04332002,0.00
 380651,-0.00000443,0.00929211,-0.13920707,0.00002389,-0.02625975,0.098
 81133,0.00000044,0.00000059,0.00041306,-0.00000076,0.00000156,0.000763
 00,0.00000354,0.00000327,-0.00171749,0.00000023,0.00000018,-0.00045304
 ,-0.00000024,0.00000003,-0.00001482,0.00000006,-0.00000011,-0.00008048
 ,-0.00000012,0.00000017,0.00002870,0.00000036,-0.00000021,0.00011980,-
 0.00000006,0.00000006,0.00003048,-0.00000003,0.00000004,-0.00000232,-0
 .00000866,-0.00001472,-0.01808984,0.00000150,0.00000264,0.00202824,0.0
 0000043,-0.00000075,-0.00273851,0.00000016,0.00000044,-0.00051479,0.00
 000287,0.00000738,0.00053529,-0.00000055,-0.00000043,-0.00014660,0.000
 00007,-0.00000002,-0.00002138,-0.00000146,0.00000011,0.00229409,0.0000
 0062,0.00000032,0.00163544,0.00000003,-0.00000004,0.00001039,0.0000000
 5,-0.00000010,-0.00037583,-0.00000001,-0.00000003,-0.00026662,-0.00000
 072,-0.00000128,0.00339313,-0.00003577,0.00005093,-0.03007173,0.000038
 01,-0.00005004,0.04324183\\0.00080095,0.00218471,0.00000011,0.00299589
 ,0.00431711,0.00000100,0.00548564,-0.00025744,-0.00000163,-0.00066173,
 0.00113445,-0.00000046,-0.00016008,-0.00137534,0.00000015,0.00094942,0
 .00094243,-0.00000019,-0.00007506,0.00025911,-0.00000012,0.00011722,-0
 .00003170,0.00000012,-0.00000633,0.00001927,0.00000002,0.00002481,0.00
 006211,-0.00000006,-0.00803467,0.00524870,-0.00001667,0.00180250,0.004
 50283,0.00000008,-0.00470352,0.00285245,-0.00000200,0.00430824,-0.0003
 1539,0.00000329,0.00820945,0.00163703,-0.00000582,-0.00144541,0.004449
 57,-0.00000021,0.00012515,0.00005305,-0.00000059,-0.00170468,0.0002339
 1,-0.00000169,-0.00290675,-0.00036231,-0.00000012,-0.00010665,0.000110
 94,-0.00000040,-0.00008971,-0.00001264,0.00000030,-0.00025795,-0.00008
 879,0.00000043,-0.00495613,-0.00332541,0.00001015,-0.00433676,-0.00654
 784,-0.00001240,0.00462616,-0.01569081,0.00002672\\\@
 The archive entry for this job was punched.


 ARTHROPOD AXIOM: A COMPUTER SYSTEM IS LIKE A SPIDER'S WEB.
 YOU CANNOT PULL ON ONE END WITHOUT MAKING THE OTHER END MOVE.
     -- GREG WETTSTEIN
 Job cpu time:       0 days  1 hours  0 minutes 14.1 seconds.
 Elapsed time:       0 days  0 hours  6 minutes 36.8 seconds.
 File lengths (MBytes):  RWF=    544 Int=      0 D2E=      0 Chk=     40 Scr=      8
 Normal termination of Gaussian 16 at Tue Oct 27 22:17:44 2020.
