 Entering Gaussian System, Link 0=g16
 Initial command:
 /gpfs/loomis/apps/avx/software/Gaussian/16-C.01_AVX/g16/l1.exe "/home/fas/batista/pev4/scratch60/gauss-scratch/Gau-26448.inp" -scrdir="/home/fas/batista/pev4/scratch60/gauss-scratch/"
 Entering Link 1 = /gpfs/loomis/apps/avx/software/Gaussian/16-C.01_AVX/g16/l1.exe PID=     26449.
  
 Copyright (c) 1988-2019, Gaussian, Inc.  All Rights Reserved.
  
 This is part of the Gaussian(R) 16 program.  It is based on
 the Gaussian(R) 09 system (copyright 2009, Gaussian, Inc.),
 the Gaussian(R) 03 system (copyright 2003, Gaussian, Inc.),
 the Gaussian(R) 98 system (copyright 1998, Gaussian, Inc.),
 the Gaussian(R) 94 system (copyright 1995, Gaussian, Inc.),
 the Gaussian 92(TM) system (copyright 1992, Gaussian, Inc.),
 the Gaussian 90(TM) system (copyright 1990, Gaussian, Inc.),
 the Gaussian 88(TM) system (copyright 1988, Gaussian, Inc.),
 the Gaussian 86(TM) system (copyright 1986, Carnegie Mellon
 University), and the Gaussian 82(TM) system (copyright 1983,
 Carnegie Mellon University). Gaussian is a federally registered
 trademark of Gaussian, Inc.
  
 This software contains proprietary and confidential information,
 including trade secrets, belonging to Gaussian, Inc.
  
 This software is provided under written license and may be
 used, copied, transmitted, or stored only in accord with that
 written license.
  
 The following legend is applicable only to US Government
 contracts under FAR:
  
                    RESTRICTED RIGHTS LEGEND
  
 Use, reproduction and disclosure by the US Government is
 subject to restrictions as set forth in subparagraphs (a)
 and (c) of the Commercial Computer Software - Restricted
 Rights clause in FAR 52.227-19.
  
 Gaussian, Inc.
 340 Quinnipiac St., Bldg. 40, Wallingford CT 06492
  
  
 ---------------------------------------------------------------
 Warning -- This program may not be used in any manner that
 competes with the business of Gaussian, Inc. or will provide
 assistance to any competitor of Gaussian, Inc.  The licensee
 of this program is prohibited from giving any competitor of
 Gaussian, Inc. access to this program.  By using this program,
 the user acknowledges that Gaussian, Inc. is engaged in the
 business of creating and licensing software in the field of
 computational chemistry and represents and warrants to the
 licensee that it is not a competitor of Gaussian, Inc. and that
 it will not use this program in any manner prohibited above.
 ---------------------------------------------------------------
  

 Cite this work as:
 Gaussian 16, Revision C.01,
 M. J. Frisch, G. W. Trucks, H. B. Schlegel, G. E. Scuseria, 
 M. A. Robb, J. R. Cheeseman, G. Scalmani, V. Barone, 
 G. A. Petersson, H. Nakatsuji, X. Li, M. Caricato, A. V. Marenich, 
 J. Bloino, B. G. Janesko, R. Gomperts, B. Mennucci, H. P. Hratchian, 
 J. V. Ortiz, A. F. Izmaylov, J. L. Sonnenberg, D. Williams-Young, 
 F. Ding, F. Lipparini, F. Egidi, J. Goings, B. Peng, A. Petrone, 
 T. Henderson, D. Ranasinghe, V. G. Zakrzewski, J. Gao, N. Rega, 
 G. Zheng, W. Liang, M. Hada, M. Ehara, K. Toyota, R. Fukuda, 
 J. Hasegawa, M. Ishida, T. Nakajima, Y. Honda, O. Kitao, H. Nakai, 
 T. Vreven, K. Throssell, J. A. Montgomery, Jr., J. E. Peralta, 
 F. Ogliaro, M. J. Bearpark, J. J. Heyd, E. N. Brothers, K. N. Kudin, 
 V. N. Staroverov, T. A. Keith, R. Kobayashi, J. Normand, 
 K. Raghavachari, A. P. Rendell, J. C. Burant, S. S. Iyengar, 
 J. Tomasi, M. Cossi, J. M. Millam, M. Klene, C. Adamo, R. Cammi, 
 J. W. Ochterski, R. L. Martin, K. Morokuma, O. Farkas, 
 J. B. Foresman, and D. J. Fox, Gaussian, Inc., Wallingford CT, 2019.
 
 ******************************************
 Gaussian 16:  ES64L-G16RevC.01  3-Jul-2019
                27-Oct-2020 
 ******************************************
 %chk=config_8_4.chk
 %mem=58GB
 %nprocshared=10
 Will use up to   10 processors via shared memory.
 ----------------------------------------------------------------------
 #p opt=addgic freq wb97xd/cc-pvdz nosymm int=ultrafine scrf=(solvent=C
 arbonTetraChloride)
 ----------------------------------------------------------------------
 1/18=20,19=15,26=6,38=1,145=903/1,3;
 2/9=110,12=2,15=1,17=6,18=5,40=1/2;
 3/5=16,11=2,25=1,30=1,70=2201,71=1,72=11,74=-58,75=-5/1,2,3;
 4//1;
 5/5=2,38=5,53=11/2;
 6/7=2,8=2,9=2,10=2,28=1/1;
 7/30=1/1,2,3,16;
 1/18=20,19=15,26=6,145=903/3(2);
 2/9=110,15=1/2;
 99//99;
 2/9=110,15=1/2;
 3/5=16,11=2,25=1,30=1,70=2205,71=1,72=11,74=-58,75=-5/1,2,3;
 4/5=5,16=3,69=1/1;
 5/5=2,38=5,53=11/2;
 7/30=1/1,2,3,16;
 1/18=20,19=15,26=6,145=903/3(-5);
 2/9=110,15=1/2;
 6/7=2,8=2,9=2,10=2,19=2,28=1/1;
 99/9=1/99;
 Leave Link    1 at Tue Oct 27 21:23:06 2020, MaxMem=  7784628224 cpu:               5.3 elap:               0.6
 (Enter /gpfs/loomis/apps/avx/software/Gaussian/16-C.01_AVX/g16/l101.exe)
 ------------------------------------------------
 NM 2D-scan of HBT TD-WB97XD pVDZ in CTC Relaxed.
 ------------------------------------------------
 Symbolic Z-matrix:
 Charge =  0 Multiplicity = 1
 C                     1.72024  -3.26763  -0.00002 
 C                     1.00395  -2.06984  -0.00002 
 C                     1.68399  -0.82191  -0.00002 
 C                     3.08914  -0.77753  -0.00002 
 C                     3.78946  -1.97389  -0.00002 
 C                     3.11714  -3.20795  -0.00002 
 H                     1.20565  -4.23069  -0.00002 
 H                     3.5982    0.18811  -0.00002 
 H                     4.88145  -1.95646  -0.00002 
 H                     3.69166  -4.13606  -0.00003 
 N                     0.861     0.25539  -0.00002 
 S                    -0.74363  -1.80889  -0.00002 
 C                    -1.40941   1.01086   0. 
 C                    -2.80101   0.8695   -0.00001 
 C                    -0.86139   2.39876   0.00003 
 C                    -3.64615   1.9985    0.00002 
 H                    -3.24554  -0.12929  -0.00004 
 C                    -1.75535   3.49922   0.00006 
 C                    -3.13388   3.30669   0.00006 
 H                    -4.72686   1.84324   0.00002 
 H                    -1.30393   4.49338   0.00009 
 H                    -3.81189   4.16121   0.00009 
 C                    -0.46055  -0.05546  -0.00001 
 O                     0.40234   2.60844   0.00003 
 H                     0.95068   1.37823   0. 
 
 Initializing the GIC definitions file.
 Number of initial coordinates =   134
 Number of input entries/lines =    52
 Number of additional coordinates =     2
 Number of removed coordinates =     0
 Number of frozen coordinates =     2
 Number of final active and frozen coordinates =   136
 ITRead=  0  0  0  0  0  0  0  0  0  0  0  0  0  0  0  0  0  0  0  0
 ITRead=  0  0  0  0  0
 MicOpt= -1 -1 -1 -1 -1 -1 -1 -1 -1 -1 -1 -1 -1 -1 -1 -1 -1 -1 -1 -1
 MicOpt= -1 -1 -1 -1 -1
 NAtoms=     25 NQM=       25 NQMF=       0 NMMI=      0 NMMIF=      0
                NMic=       0 NMicF=      0.
                    Isotopes and Nuclear Properties:
 (Nuclear quadrupole moments (NQMom) in fm**2, nuclear magnetic moments (NMagM)
  in nuclear magnetons)

  Atom         1           2           3           4           5           6           7           8           9          10
 IAtWgt=          12          12          12          12          12          12           1           1           1           1
 AtmWgt=  12.0000000  12.0000000  12.0000000  12.0000000  12.0000000  12.0000000   1.0078250   1.0078250   1.0078250   1.0078250
 NucSpn=           0           0           0           0           0           0           1           1           1           1
 AtZEff=  -0.0000000  -0.0000000  -0.0000000  -0.0000000  -0.0000000  -0.0000000  -0.0000000  -0.0000000  -0.0000000  -0.0000000
 NQMom=    0.0000000   0.0000000   0.0000000   0.0000000   0.0000000   0.0000000   0.0000000   0.0000000   0.0000000   0.0000000
 NMagM=    0.0000000   0.0000000   0.0000000   0.0000000   0.0000000   0.0000000   2.7928460   2.7928460   2.7928460   2.7928460
 AtZNuc=   6.0000000   6.0000000   6.0000000   6.0000000   6.0000000   6.0000000   1.0000000   1.0000000   1.0000000   1.0000000

  Atom        11          12          13          14          15          16          17          18          19          20
 IAtWgt=          14          32          12          12          12          12           1          12          12           1
 AtmWgt=  14.0030740  31.9720718  12.0000000  12.0000000  12.0000000  12.0000000   1.0078250  12.0000000  12.0000000   1.0078250
 NucSpn=           2           0           0           0           0           0           1           0           0           1
 AtZEff=  -0.0000000  -0.0000000  -0.0000000  -0.0000000  -0.0000000  -0.0000000  -0.0000000  -0.0000000  -0.0000000  -0.0000000
 NQMom=    2.0440000   0.0000000   0.0000000   0.0000000   0.0000000   0.0000000   0.0000000   0.0000000   0.0000000   0.0000000
 NMagM=    0.4037610   0.0000000   0.0000000   0.0000000   0.0000000   0.0000000   2.7928460   0.0000000   0.0000000   2.7928460
 AtZNuc=   7.0000000  16.0000000   6.0000000   6.0000000   6.0000000   6.0000000   1.0000000   6.0000000   6.0000000   1.0000000

  Atom        21          22          23          24          25
 IAtWgt=           1           1          12          16           1
 AtmWgt=   1.0078250   1.0078250  12.0000000  15.9949146   1.0078250
 NucSpn=           1           1           0           0           1
 AtZEff=  -0.0000000  -0.0000000  -0.0000000  -0.0000000  -0.0000000
 NQMom=    0.0000000   0.0000000   0.0000000   0.0000000   0.0000000
 NMagM=    2.7928460   2.7928460   0.0000000   0.0000000   2.7928460
 AtZNuc=   1.0000000   1.0000000   6.0000000   8.0000000   1.0000000
 Leave Link  101 at Tue Oct 27 21:23:09 2020, MaxMem=  7784628224 cpu:              32.7 elap:               3.3
 (Enter /gpfs/loomis/apps/avx/software/Gaussian/16-C.01_AVX/g16/l103.exe)

 GradGradGradGradGradGradGradGradGradGradGradGradGradGradGradGradGradGrad
 Berny optimization.
 Initialization pass.
                           ----------------------------
                           !    Initial Parameters    !
                           ! (Angstroms and Degrees)  !
 --------------------------                            --------------------------
 ! Name  Definition              Value          Derivative Info.                !
 --------------------------------------------------------------------------------
 ! R1    R(1,2)                  1.3956         estimate D2E/DX2                !
 ! R2    R(1,6)                  1.3982         estimate D2E/DX2                !
 ! R3    R(1,7)                  1.0919         estimate D2E/DX2                !
 ! R4    R(2,3)                  1.4212         estimate D2E/DX2                !
 ! R5    R(2,12)                 1.767          estimate D2E/DX2                !
 ! R6    R(3,4)                  1.4058         estimate D2E/DX2                !
 ! R7    R(3,11)                 1.3557         estimate D2E/DX2                !
 ! R8    R(4,5)                  1.3863         estimate D2E/DX2                !
 ! R9    R(4,8)                  1.0916         estimate D2E/DX2                !
 ! R10   R(5,6)                  1.4053         estimate D2E/DX2                !
 ! R11   R(5,9)                  1.0921         estimate D2E/DX2                !
 ! R12   R(6,10)                 1.0915         estimate D2E/DX2                !
 ! R13   R(11,23)                1.3576         estimate D2E/DX2                !
 ! R14   R(11,25)                1.1264         estimate D2E/DX2                !
 ! R15   R(12,23)                1.7761         estimate D2E/DX2                !
 ! R16   R(13,14)                1.3988         estimate D2E/DX2                !
 ! R17   R(13,15)                1.4922         estimate D2E/DX2                !
 ! R18   R(13,23)                1.4274         estimate D2E/DX2                !
 ! R19   R(14,16)                1.4103         estimate D2E/DX2                !
 ! R20   R(14,17)                1.0932         estimate D2E/DX2                !
 ! R21   R(15,18)                1.4178         estimate D2E/DX2                !
 ! R22   R(15,24)                1.281          estimate D2E/DX2                !
 ! R23   R(16,19)                1.4049         estimate D2E/DX2                !
 ! R24   R(16,20)                1.0918         estimate D2E/DX2                !
 ! R25   R(18,19)                1.3919         estimate D2E/DX2                !
 ! R26   R(18,21)                1.0918         estimate D2E/DX2                !
 ! R27   R(19,22)                1.0908         estimate D2E/DX2                !
 ! A1    A(2,1,6)              118.4335         estimate D2E/DX2                !
 ! A2    A(2,1,7)              121.0037         estimate D2E/DX2                !
 ! A3    A(6,1,7)              120.5628         estimate D2E/DX2                !
 ! A4    A(1,2,3)              120.5329         estimate D2E/DX2                !
 ! A5    A(1,2,12)             129.3723         estimate D2E/DX2                !
 ! A6    A(3,2,12)             110.0948         estimate D2E/DX2                !
 ! A7    A(2,3,4)              120.3962         estimate D2E/DX2                !
 ! A8    A(2,3,11)             114.0349         estimate D2E/DX2                !
 ! A9    A(4,3,11)             125.5689         estimate D2E/DX2                !
 ! A10   A(3,4,5)              118.5352         estimate D2E/DX2                !
 ! A11   A(3,4,8)              119.6062         estimate D2E/DX2                !
 ! A12   A(5,4,8)              121.8586         estimate D2E/DX2                !
 ! A13   A(4,5,6)              121.0746         estimate D2E/DX2                !
 ! A14   A(4,5,9)              119.4295         estimate D2E/DX2                !
 ! A15   A(6,5,9)              119.4959         estimate D2E/DX2                !
 ! A16   A(1,6,5)              121.0276         estimate D2E/DX2                !
 ! A17   A(1,6,10)             119.3123         estimate D2E/DX2                !
 ! A18   A(5,6,10)             119.6601         estimate D2E/DX2                !
 ! A19   A(3,11,23)            114.1418         estimate D2E/DX2                !
 ! A20   A(3,11,25)            138.0561         estimate D2E/DX2                !
 ! A21   A(23,11,25)           107.8021         estimate D2E/DX2                !
 ! A22   A(2,12,23)             89.3218         estimate D2E/DX2                !
 ! A23   A(14,13,15)           117.3469         estimate D2E/DX2                !
 ! A24   A(14,13,23)           125.8644         estimate D2E/DX2                !
 ! A25   A(15,13,23)           116.7886         estimate D2E/DX2                !
 ! A26   A(13,14,16)           121.0177         estimate D2E/DX2                !
 ! A27   A(13,14,17)           119.7922         estimate D2E/DX2                !
 ! A28   A(16,14,17)           119.1901         estimate D2E/DX2                !
 ! A29   A(13,15,18)           119.3645         estimate D2E/DX2                !
 ! A30   A(13,15,24)           120.968          estimate D2E/DX2                !
 ! A31   A(18,15,24)           119.6675         estimate D2E/DX2                !
 ! A32   A(14,16,19)           121.7978         estimate D2E/DX2                !
 ! A33   A(14,16,20)           118.6424         estimate D2E/DX2                !
 ! A34   A(19,16,20)           119.5598         estimate D2E/DX2                !
 ! A35   A(15,18,19)           121.1381         estimate D2E/DX2                !
 ! A36   A(15,18,21)           116.4902         estimate D2E/DX2                !
 ! A37   A(19,18,21)           122.3717         estimate D2E/DX2                !
 ! A38   A(16,19,18)           119.3349         estimate D2E/DX2                !
 ! A39   A(16,19,22)           120.1856         estimate D2E/DX2                !
 ! A40   A(18,19,22)           120.4795         estimate D2E/DX2                !
 ! A41   A(11,23,12)           112.4068         estimate D2E/DX2                !
 ! A42   A(11,23,13)           118.4285         estimate D2E/DX2                !
 ! A43   A(12,23,13)           129.1647         estimate D2E/DX2                !
 ! D1    D(6,1,2,3)              0.0            estimate D2E/DX2                !
 ! D2    D(6,1,2,12)          -179.9999         estimate D2E/DX2                !
 ! D3    D(7,1,2,3)            179.9999         estimate D2E/DX2                !
 ! D4    D(7,1,2,12)             0.0            estimate D2E/DX2                !
 ! D5    D(2,1,6,5)              0.0            estimate D2E/DX2                !
 ! D6    D(2,1,6,10)           180.0            estimate D2E/DX2                !
 ! D7    D(7,1,6,5)           -179.9999         estimate D2E/DX2                !
 ! D8    D(7,1,6,10)             0.0001         estimate D2E/DX2                !
 ! D9    D(1,2,3,4)              0.0            estimate D2E/DX2                !
 ! D10   D(1,2,3,11)           179.9999         estimate D2E/DX2                !
 ! D11   D(12,2,3,4)           179.9999         estimate D2E/DX2                !
 ! D12   D(12,2,3,11)           -0.0001         estimate D2E/DX2                !
 ! D13   D(1,2,12,23)          179.9999         estimate D2E/DX2                !
 ! D14   D(3,2,12,23)            0.0            estimate D2E/DX2                !
 ! D15   D(2,3,4,5)              0.0            estimate D2E/DX2                !
 ! D16   D(2,3,4,8)           -180.0            estimate D2E/DX2                !
 ! D17   D(11,3,4,5)          -180.0            estimate D2E/DX2                !
 ! D18   D(11,3,4,8)             0.0            estimate D2E/DX2                !
 ! D19   D(2,3,11,23)            0.0002         estimate D2E/DX2                !
 ! D20   D(2,3,11,25)          179.9987         estimate D2E/DX2                !
 ! D21   D(4,3,11,23)         -179.9998         estimate D2E/DX2                !
 ! D22   D(4,3,11,25)           -0.0014         estimate D2E/DX2                !
 ! D23   D(3,4,5,6)              0.0            estimate D2E/DX2                !
 ! D24   D(3,4,5,9)           -180.0            estimate D2E/DX2                !
 ! D25   D(8,4,5,6)           -180.0            estimate D2E/DX2                !
 ! D26   D(8,4,5,9)              0.0            estimate D2E/DX2                !
 ! D27   D(4,5,6,1)              0.0            estimate D2E/DX2                !
 ! D28   D(4,5,6,10)          -180.0            estimate D2E/DX2                !
 ! D29   D(9,5,6,1)            180.0            estimate D2E/DX2                !
 ! D30   D(9,5,6,10)             0.0            estimate D2E/DX2                !
 ! D31   D(3,11,23,12)          -0.0002         estimate D2E/DX2                !
 ! D32   D(3,11,23,13)         179.9994         estimate D2E/DX2                !
 ! D33   D(25,11,23,12)       -179.9991         estimate D2E/DX2                !
 ! D34   D(25,11,23,13)          0.0005         estimate D2E/DX2                !
 ! D35   D(2,12,23,11)           0.0001         estimate D2E/DX2                !
 ! D36   D(2,12,23,13)        -179.9994         estimate D2E/DX2                !
 ! D37   D(15,13,14,16)         -0.0006         estimate D2E/DX2                !
 ! D38   D(15,13,14,17)        179.9996         estimate D2E/DX2                !
 ! D39   D(23,13,14,16)        179.9993         estimate D2E/DX2                !
 ! D40   D(23,13,14,17)         -0.0005         estimate D2E/DX2                !
 ! D41   D(14,13,15,18)          0.0006         estimate D2E/DX2                !
 ! D42   D(14,13,15,24)       -179.9995         estimate D2E/DX2                !
 ! D43   D(23,13,15,18)       -179.9993         estimate D2E/DX2                !
 ! D44   D(23,13,15,24)          0.0006         estimate D2E/DX2                !
 ! D45   D(14,13,23,11)        179.9993         estimate D2E/DX2                !
 ! D46   D(14,13,23,12)         -0.0012         estimate D2E/DX2                !
 ! D47   D(15,13,23,11)         -0.0008         estimate D2E/DX2                !
 ! D48   D(15,13,23,12)        179.9987         estimate D2E/DX2                !
 ! D49   D(13,14,16,19)          0.0001         estimate D2E/DX2                !
 ! D50   D(13,14,16,20)       -179.9998         estimate D2E/DX2                !
 ! D51   D(17,14,16,19)        180.0            estimate D2E/DX2                !
 ! D52   D(17,14,16,20)          0.0            estimate D2E/DX2                !
 ! D53   D(13,15,18,19)         -0.0002         estimate D2E/DX2                !
 ! D54   D(13,15,18,21)        179.9998         estimate D2E/DX2                !
 ! D55   D(24,15,18,19)        179.9999         estimate D2E/DX2                !
 ! D56   D(24,15,18,21)         -0.0002         estimate D2E/DX2                !
 ! D57   D(14,16,19,18)          0.0003         estimate D2E/DX2                !
 ! D58   D(14,16,19,22)       -179.9998         estimate D2E/DX2                !
 ! D59   D(20,16,19,18)       -179.9998         estimate D2E/DX2                !
 ! D60   D(20,16,19,22)          0.0001         estimate D2E/DX2                !
 ! D61   D(15,18,19,16)         -0.0003         estimate D2E/DX2                !
 ! D62   D(15,18,19,22)        179.9998         estimate D2E/DX2                !
 ! D63   D(21,18,19,16)        179.9998         estimate D2E/DX2                !
 ! D64   D(21,18,19,22)         -0.0001         estimate D2E/DX2                !
 ! Qtot  GIC-1                  20.0            Frozen                          !
 ! Ptot  GIC-2                 -80.0            Frozen                          !
 --------------------------------------------------------------------------------
 NOTE: GIC-type coordinates are in arbitrary units.
 Trust Radius=3.00D-01 FncErr=5.00D-06 GrdErr=5.00D-06 EigMax=2.50D+02 EigMin=1.00D-04
 Number of steps in this run=    146 maximum allowed number of steps=    150.
 GradGradGradGradGradGradGradGradGradGradGradGradGradGradGradGradGradGrad

 Leave Link  103 at Tue Oct 27 21:23:09 2020, MaxMem=  7784628224 cpu:               0.3 elap:               0.1
 (Enter /gpfs/loomis/apps/avx/software/Gaussian/16-C.01_AVX/g16/l202.exe)
                          Input orientation:                          
 ---------------------------------------------------------------------
 Center     Atomic      Atomic             Coordinates (Angstroms)
 Number     Number       Type             X           Y           Z
 ---------------------------------------------------------------------
      1          6           0        1.720238   -3.267629   -0.000024
      2          6           0        1.003954   -2.069842   -0.000021
      3          6           0        1.683994   -0.821906   -0.000019
      4          6           0        3.089136   -0.777532   -0.000020
      5          6           0        3.789461   -1.973887   -0.000022
      6          6           0        3.117144   -3.207954   -0.000024
      7          1           0        1.205654   -4.230686   -0.000024
      8          1           0        3.598204    0.188105   -0.000018
      9          1           0        4.881450   -1.956458   -0.000022
     10          1           0        3.691665   -4.136062   -0.000026
     11          7           0        0.861005    0.255387   -0.000018
     12         16           0       -0.743631   -1.808894   -0.000018
     13          6           0       -1.409414    1.010857    0.000001
     14          6           0       -2.801011    0.869503   -0.000008
     15          6           0       -0.861392    2.398757    0.000031
     16          6           0       -3.646151    1.998497    0.000023
     17          1           0       -3.245538   -0.129287   -0.000037
     18          6           0       -1.755345    3.499216    0.000061
     19          6           0       -3.133885    3.306691    0.000060
     20          1           0       -4.726863    1.843238    0.000017
     21          1           0       -1.303929    4.493378    0.000087
     22          1           0       -3.811893    4.161206    0.000086
     23          6           0       -0.460551   -0.055455   -0.000014
     24          8           0        0.402343    2.608445    0.000031
     25          1           0        0.950679    1.378228    0.000001
 ---------------------------------------------------------------------
                    Distance matrix (angstroms):
                    1          2          3          4          5
     1  C    0.000000
     2  C    1.395620   0.000000
     3  C    2.445991   1.421197   0.000000
     4  C    2.841560   2.453172   1.405842   0.000000
     5  C    2.440380   2.787160   2.400011   1.386262   0.000000
     6  C    1.398181   2.400181   2.783369   2.430583   1.405322
     7  H    1.091913   2.170237   3.442178   3.933418   3.430627
     8  H    3.933046   3.439253   2.164329   1.091607   2.170435
     9  H    3.422343   3.879153   3.392776   2.145287   1.092128
    10  H    2.154229   3.390141   3.874838   3.412150   2.164386
    11  N    3.626282   2.329619   1.355682   2.455909   3.680424
    12  S    2.863312   1.766960   2.620593   3.969107   4.536094
    13  C    5.300958   3.913445   3.595580   4.841000   5.994748
    14  C    6.128422   4.808067   4.793343   6.116090   7.177688
    15  C    6.226777   4.842303   4.105078   5.069072   6.383609
    16  C    7.518657   6.178581   6.030350   7.284945   8.430194
    17  H    5.874361   4.671610   4.977953   6.367756   7.272810
    18  C    7.607224   6.215154   5.522785   6.462164   7.791003
    19  C    8.172159   6.784454   6.344862   7.443579   8.707309
    20  H    8.227155   6.939342   6.942772   8.243681   9.332643
    21  H    8.329394   6.957168   6.097535   6.861597   8.232141
    22  H    9.262400   7.875173   7.418637   8.486185   9.768314
    23  C    3.882512   2.490488   2.277394   3.622385   4.662937
    24  O    6.022050   4.716811   3.661958   4.322464   5.698275
    25  H    4.709162   3.448482   2.319125   3.036494   4.392648
                    6          7          8          9         10
     6  C    0.000000
     7  H    2.167897   0.000000
     8  H    3.429961   5.024939   0.000000
     9  H    2.163103   4.322452   2.499174   0.000000
    10  H    1.091540   2.487811   4.325177   2.483196   0.000000
    11  N    4.133388   4.499293   2.738026   4.588708   5.224697
    12  S    4.106453   3.108824   4.779073   5.627016   5.008748
    13  C    6.187737   5.857675   5.074757   6.955568   7.246501
    14  C    7.186809   6.485777   6.435391   8.185735   8.198203
    15  C    6.874879   6.944221   4.977447   7.207505   7.964559
    16  C    8.535180   7.895741   7.467141   9.400087   9.564327
    17  H    7.068374   6.052651   6.851098   8.329855   8.011182
    18  C    8.290191   8.277614   6.294755   8.591357   9.379093
    19  C    9.028619   8.697336   7.419339   9.588864  10.098648
    20  H    9.329683   8.490425   8.488004  10.332346  10.325873
    21  H    8.880112   9.077847   6.524284   8.936402   9.971118
    22  H   10.115140   9.777506   8.408035  10.630146  11.186958
    23  C    4.768454   4.495419   4.066056   5.670166   5.821705
    24  O    6.418772   6.886147   4.008936   6.395368   7.503866
    25  H    5.072143   5.614706   2.902719   5.154715   6.157954
                   11         12         13         14         15
    11  N    0.000000
    12  S    2.614596   0.000000
    13  C    2.392809   2.897285   0.000000
    14  C    3.713152   3.377370   1.398758   0.000000
    15  C    2.749671   4.209299   1.492178   2.469968   0.000000
    16  C    4.832482   4.787573   2.445082   1.410279   2.813377
    17  H    4.124520   3.013407   2.161314   1.093245   3.474933
    18  C    4.167458   5.403665   2.512289   2.829983   1.417801
    19  C    5.026887   5.646461   2.871350   2.459815   2.447155
    20  H    5.809091   5.404092   3.420282   2.158024   3.905185
    21  H    4.758939   6.327130   3.484118   3.920934   2.140858
    22  H    6.090270   6.712401   3.961894   3.443427   3.436812
    23  C    1.357620   1.776143   1.427362   2.516605   2.486731
    24  O    2.397342   4.563567   2.415523   3.644914   1.281014
    25  H    1.126416   3.609492   2.388514   3.786025   2.079683
                   16         17         18         19         20
    16  C    0.000000
    17  H    2.165168   0.000000
    18  C    2.413981   3.922589   0.000000
    19  C    1.404916   3.437791   1.391919   0.000000
    20  H    1.091808   2.466816   3.401791   2.163163   0.000000
    21  H    3.422051   5.013868   1.091850   2.181047   4.328940
    22  H    2.169051   4.327712   2.160467   1.090821   2.492016
    23  C    3.790352   2.785966   3.783144   4.295432   4.669738
    24  O    4.094184   4.560944   2.334329   3.604505   5.185971
    25  H    4.638489   4.458794   3.438191   4.516927   5.696553
                   21         22         23         24         25
    21  H    0.000000
    22  H    2.529866   0.000000
    23  C    4.626356   5.386253   0.000000
    24  O    2.542506   4.491197   2.800169   0.000000
    25  H    3.845441   5.516073   2.011720   1.346887   0.000000
 Symmetry turned off by external request.
 Stoichiometry    C13H9NOS
 Framework group  C1[X(C13H9NOS)]
 Deg. of freedom    69
 Full point group                 C1      NOp   1
 Rotational constants (GHZ):           1.3629868           0.2855702           0.2361025
 Leave Link  202 at Tue Oct 27 21:23:09 2020, MaxMem=  7784628224 cpu:               0.4 elap:               0.1
 (Enter /gpfs/loomis/apps/avx/software/Gaussian/16-C.01_AVX/g16/l301.exe)
 Standard basis: CC-pVDZ (5D, 7F)
 Ernie: Thresh=  0.10000D-02 Tol=  0.10000D-05 Strict=F.
 Ernie:  40 primitive shells out of 425 were deleted.
   273 basis functions,   629 primitive gaussians,   289 cartesian basis functions
    59 alpha electrons       59 beta electrons
       nuclear repulsion energy      1096.5390341093 Hartrees.
 IExCor= 4639 DFT=T Ex+Corr=wB97XD ExCW=0 ScaHFX=  1.000000
 ScaDFX=  1.000000  1.000000  1.000000  1.000000 ScalE2=  1.000000  1.000000
 IRadAn=      5 IRanWt=     -1 IRanGd=            0 ICorTp=0 IEmpDi=121
 HFx  wShort=  0.000000 wLong=  0.200000 cFull=  0.222036 cShort=  0.000000 cLong=  0.777964
 DFx  wShort=  0.000000 wLong=  0.200000 cFull=  0.000000 cShort=  0.000000 cLong=  1.000000
 NAtoms=   25 NActive=   25 NUniq=   25 SFac= 1.00D+00 NAtFMM=   60 NAOKFM=F Big=F
 Integral buffers will be    131072 words long.
 Raffenetti 2 integral format.
 Two-electron integral symmetry is turned off.
 R6Disp:  Grimme-D2 Dispersion energy=       -0.0140299274 Hartrees.
 Nuclear repulsion after empirical dispersion term =     1096.5250041819 Hartrees.
 ------------------------------------------------------------------------------
 Polarizable Continuum Model (PCM)
 =================================
 Model                : PCM.
 Atomic radii         : UFF (Universal Force Field).
 Polarization charges : Total charges.
 Charge compensation  : None.
 Solution method      : On-the-fly selection.
 Cavity type          : Scaled VdW (van der Waals Surface) (Alpha=1.100).
 Cavity algorithm     : GePol (No added spheres)
                        Default sphere list used, NSphG=   25.
                        Lebedev-Laikov grids with approx.  5.0 points / Ang**2.
                        Smoothing algorithm: York/Karplus (Gamma=1.0000).
                        Polarization charges: spherical gaussians, with
                                              point-specific exponents (IZeta= 3).
                        Self-potential: point-specific (ISelfS= 7).
                        Self-field    : sphere-specific E.n sum rule (ISelfD= 2).
 1st derivatives      : Analytical E(r).r(x)/FMM algorithm (CHGder, D1EAlg=3).
                        Cavity 1st derivative terms included.
 Solvent              : CarbonTetraChloride, Eps=   2.228000 Eps(inf)=   2.131892
 ------------------------------------------------------------------------------
 GePol: Number of generator spheres                  =      25
 GePol: Total number of spheres                      =      25
 GePol: Number of exposed spheres                    =      25 (100.00%)
 GePol: Number of points                             =    2198
 GePol: Average weight of points                     =       0.13
 GePol: Minimum weight of points                     =   0.48D-08
 GePol: Maximum weight of points                     =    0.20577
 GePol: Number of points with low weight             =     146
 GePol: Fraction of low-weight points (<1% of avg)   =       6.64%
 GePol: Cavity surface area                          =    275.064 Ang**2
 GePol: Cavity volume                                =    294.201 Ang**3
 Leave Link  301 at Tue Oct 27 21:23:09 2020, MaxMem=  7784628224 cpu:               0.8 elap:               0.1
 (Enter /gpfs/loomis/apps/avx/software/Gaussian/16-C.01_AVX/g16/l302.exe)
 NPDir=0 NMtPBC=     1 NCelOv=     1 NCel=       1 NClECP=     1 NCelD=      1
         NCelK=      1 NCelE2=     1 NClLst=     1 CellRange=     0.0.
 One-electron integrals computed using PRISM.
 NBasis=   273 RedAO= T EigKep=  3.10D-04  NBF=   273
 NBsUse=   273 1.00D-06 EigRej= -1.00D+00 NBFU=   273
 Precomputing XC quadrature grid using
 IXCGrd= 4 IRadAn=           5 IRanWt=          -1 IRanGd=           0 AccXCQ= 0.00D+00.
 Generated NRdTot=       0 NPtTot=           0 NUsed=           0 NTot=          32
 NSgBfM=   288   288   288   288   288 MxSgAt=    25 MxSgA2=    25.
 Leave Link  302 at Tue Oct 27 21:23:10 2020, MaxMem=  7784628224 cpu:               2.6 elap:               0.3
 (Enter /gpfs/loomis/apps/avx/software/Gaussian/16-C.01_AVX/g16/l303.exe)
 DipDrv:  MaxL=1.
 Leave Link  303 at Tue Oct 27 21:23:10 2020, MaxMem=  7784628224 cpu:               0.9 elap:               0.1
 (Enter /gpfs/loomis/apps/avx/software/Gaussian/16-C.01_AVX/g16/l401.exe)
 ExpMin= 1.22D-01 ExpMax= 1.11D+05 ExpMxC= 1.07D+03 IAcc=3 IRadAn=         5 AccDes= 0.00D+00
 Harris functional with IExCor= 4639 and IRadAn=       5 diagonalized for initial guess.
 HarFok:  IExCor= 4639 AccDes= 0.00D+00 IRadAn=         5 IDoV= 1 UseB2=F ITyADJ=14
 ICtDFT=  3500011 ScaDFX=  1.000000  1.000000  1.000000  1.000000
 FoFCou: FMM=F IPFlag=           0 FMFlag=      100000 FMFlg1=           0
         NFxFlg=           0 DoJE=T BraDBF=F KetDBF=T FulRan=T
         wScrn=  0.000000 ICntrl=       500 IOpCl=  0 I1Cent=   200000004 NGrid=           0
         NMat0=    1 NMatS0=      1 NMatT0=    0 NMatD0=    1 NMtDS0=    0 NMtDT0=    0
 Symmetry not used in FoFCou.
 Harris En= -994.460715293858    
 JPrj=0 DoOrth=F DoCkMO=F.
 Leave Link  401 at Tue Oct 27 21:23:11 2020, MaxMem=  7784628224 cpu:              14.2 elap:               1.5
 (Enter /gpfs/loomis/apps/avx/software/Gaussian/16-C.01_AVX/g16/l502.exe)
 Two-electron integral symmetry not used.
 Closed shell SCF:
 Using DIIS extrapolation, IDIIS=  1040.
 NGot=  7784628224 LenX=  7784455381 LenY=  7784371419
 Requested convergence on RMS density matrix=1.00D-08 within 128 cycles.
 Requested convergence on MAX density matrix=1.00D-06.
 Requested convergence on             energy=1.00D-06.
 No special actions if energy rises.
 Fock matrices will be formed incrementally for  20 cycles.

 Cycle   1  Pass 1  IDiag  1:
 FoFJK:  IHMeth= 1 ICntrl=       0 DoSepK=T KAlg= 0 I1Cent=           0 FoldK=F
 IRaf=         1 NMat=       1 IRICut=       1 DoRegI=T DoRafI=F ISym2E= 0 IDoP0=0 IntGTp=1.
 FoFCou: FMM=F IPFlag=           0 FMFlag=      100000 FMFlg1=           0
         NFxFlg=           0 DoJE=T BraDBF=F KetDBF=F FulRan=T
         wScrn=  0.000000 ICntrl=       500 IOpCl=  0 I1Cent=           0 NGrid=           0
         NMat0=    1 NMatS0=      1 NMatT0=    0 NMatD0=    1 NMtDS0=    0 NMtDT0=    0
 Symmetry not used in FoFCou.
 Inv3:  Mode=1 IEnd=    14493612.
 Iteration    1 A*A^-1 deviation from unit magnitude is 6.33D-15 for   2174.
 Iteration    1 A*A^-1 deviation from orthogonality  is 1.46D-15 for    691    472.
 Iteration    1 A^-1*A deviation from unit magnitude is 6.55D-15 for   2174.
 Iteration    1 A^-1*A deviation from orthogonality  is 1.68D-15 for   1877   1490.
 E= -1028.56187085455    
 DIIS: error= 3.92D-02 at cycle   1 NSaved=   1.
 NSaved= 1 IEnMin= 1 EnMin= -1028.56187085455     IErMin= 1 ErrMin= 3.92D-02
 ErrMax= 3.92D-02  0.00D+00 EMaxC= 1.00D-01 BMatC= 3.96D-01 BMatP= 3.96D-01
 IDIUse=3 WtCom= 6.08D-01 WtEn= 3.92D-01
 Coeff-Com:  0.100D+01
 Coeff-En:   0.100D+01
 Coeff:      0.100D+01
 Gap=     0.330 Goal=   None    Shift=    0.000
 GapD=    0.330 DampG=1.000 DampE=0.500 DampFc=0.5000 IDamp=-1.
 Damping current iteration by 5.00D-01
 RMSDP=3.59D-03 MaxDP=2.32D-01              OVMax= 1.85D-01

 Cycle   2  Pass 1  IDiag  1:
 RMSU=  1.79D-03    CP:  9.94D-01
 E= -1028.68287345350     Delta-E=       -0.121002598947 Rises=F Damp=T
 DIIS: error= 1.09D-02 at cycle   2 NSaved=   2.
 NSaved= 2 IEnMin= 2 EnMin= -1028.68287345350     IErMin= 2 ErrMin= 1.09D-02
 ErrMax= 1.09D-02  0.00D+00 EMaxC= 1.00D-01 BMatC= 5.82D-02 BMatP= 3.96D-01
 IDIUse=3 WtCom= 8.91D-01 WtEn= 1.09D-01
 Coeff-Com: -0.282D+00 0.128D+01
 Coeff-En:   0.000D+00 0.100D+01
 Coeff:     -0.251D+00 0.125D+01
 Gap=     0.294 Goal=   None    Shift=    0.000
 RMSDP=1.16D-03 MaxDP=2.52D-02 DE=-1.21D-01 OVMax= 1.23D-01

 Cycle   3  Pass 1  IDiag  1:
 RMSU=  1.11D-03    CP:  9.92D-01  1.18D+00
 E= -1028.79085432743     Delta-E=       -0.107980873938 Rises=F Damp=F
 DIIS: error= 6.81D-03 at cycle   3 NSaved=   3.
 NSaved= 3 IEnMin= 3 EnMin= -1028.79085432743     IErMin= 3 ErrMin= 6.81D-03
 ErrMax= 6.81D-03  0.00D+00 EMaxC= 1.00D-01 BMatC= 1.51D-02 BMatP= 5.82D-02
 IDIUse=3 WtCom= 9.32D-01 WtEn= 6.81D-02
 Coeff-Com: -0.203D+00 0.494D+00 0.710D+00
 Coeff-En:   0.000D+00 0.000D+00 0.100D+01
 Coeff:     -0.189D+00 0.460D+00 0.729D+00
 Gap=     0.248 Goal=   None    Shift=    0.000
 RMSDP=5.48D-04 MaxDP=1.94D-02 DE=-1.08D-01 OVMax= 4.08D-02

 Cycle   4  Pass 1  IDiag  1:
 RMSU=  4.35D-04    CP:  9.90D-01  1.34D+00  8.39D-01
 E= -1028.80524928357     Delta-E=       -0.014394956134 Rises=F Damp=F
 DIIS: error= 2.22D-03 at cycle   4 NSaved=   4.
 NSaved= 4 IEnMin= 4 EnMin= -1028.80524928357     IErMin= 4 ErrMin= 2.22D-03
 ErrMax= 2.22D-03  0.00D+00 EMaxC= 1.00D-01 BMatC= 1.90D-03 BMatP= 1.51D-02
 IDIUse=3 WtCom= 9.78D-01 WtEn= 2.22D-02
 Coeff-Com: -0.721D-01 0.143D+00 0.349D+00 0.580D+00
 Coeff-En:   0.000D+00 0.000D+00 0.000D+00 0.100D+01
 Coeff:     -0.705D-01 0.140D+00 0.341D+00 0.589D+00
 Gap=     0.247 Goal=   None    Shift=    0.000
 RMSDP=1.75D-04 MaxDP=1.03D-02 DE=-1.44D-02 OVMax= 1.12D-02

 Cycle   5  Pass 1  IDiag  1:
 RMSU=  1.10D-04    CP:  9.90D-01  1.35D+00  9.12D-01  7.52D-01
 E= -1028.80730333045     Delta-E=       -0.002054046888 Rises=F Damp=F
 DIIS: error= 4.84D-04 at cycle   5 NSaved=   5.
 NSaved= 5 IEnMin= 5 EnMin= -1028.80730333045     IErMin= 5 ErrMin= 4.84D-04
 ErrMax= 4.84D-04  0.00D+00 EMaxC= 1.00D-01 BMatC= 5.73D-05 BMatP= 1.90D-03
 IDIUse=3 WtCom= 9.95D-01 WtEn= 4.84D-03
 Coeff-Com: -0.184D-02-0.253D-02 0.337D-01 0.159D+00 0.811D+00
 Coeff-En:   0.000D+00 0.000D+00 0.000D+00 0.000D+00 0.100D+01
 Coeff:     -0.184D-02-0.252D-02 0.336D-01 0.158D+00 0.812D+00
 Gap=     0.248 Goal=   None    Shift=    0.000
 RMSDP=5.48D-05 MaxDP=1.74D-03 DE=-2.05D-03 OVMax= 5.61D-03

 Cycle   6  Pass 1  IDiag  1:
 RMSU=  3.52D-05    CP:  9.90D-01  1.35D+00  9.29D-01  8.33D-01  1.08D+00
 E= -1028.80742887818     Delta-E=       -0.000125547722 Rises=F Damp=F
 DIIS: error= 2.08D-04 at cycle   6 NSaved=   6.
 NSaved= 6 IEnMin= 6 EnMin= -1028.80742887818     IErMin= 6 ErrMin= 2.08D-04
 ErrMax= 2.08D-04  0.00D+00 EMaxC= 1.00D-01 BMatC= 1.12D-05 BMatP= 5.73D-05
 IDIUse=3 WtCom= 9.98D-01 WtEn= 2.08D-03
 Coeff-Com:  0.154D-01-0.319D-01-0.605D-01-0.645D-01 0.235D+00 0.906D+00
 Coeff-En:   0.000D+00 0.000D+00 0.000D+00 0.000D+00 0.000D+00 0.100D+01
 Coeff:      0.154D-01-0.318D-01-0.604D-01-0.644D-01 0.235D+00 0.906D+00
 Gap=     0.248 Goal=   None    Shift=    0.000
 RMSDP=3.28D-05 MaxDP=1.54D-03 DE=-1.26D-04 OVMax= 3.52D-03

 Cycle   7  Pass 1  IDiag  1:
 RMSU=  1.67D-05    CP:  9.90D-01  1.35D+00  9.40D-01  8.65D-01  1.26D+00
                    CP:  1.29D+00
 E= -1028.80746198066     Delta-E=       -0.000033102478 Rises=F Damp=F
 DIIS: error= 1.21D-04 at cycle   7 NSaved=   7.
 NSaved= 7 IEnMin= 7 EnMin= -1028.80746198066     IErMin= 7 ErrMin= 1.21D-04
 ErrMax= 1.21D-04  0.00D+00 EMaxC= 1.00D-01 BMatC= 2.37D-06 BMatP= 1.12D-05
 IDIUse=3 WtCom= 9.99D-01 WtEn= 1.21D-03
 Coeff-Com:  0.684D-02-0.131D-01-0.299D-01-0.503D-01-0.918D-02 0.385D+00
 Coeff-Com:  0.710D+00
 Coeff-En:   0.000D+00 0.000D+00 0.000D+00 0.000D+00 0.000D+00 0.000D+00
 Coeff-En:   0.100D+01
 Coeff:      0.684D-02-0.130D-01-0.299D-01-0.502D-01-0.917D-02 0.385D+00
 Coeff:      0.711D+00
 Gap=     0.249 Goal=   None    Shift=    0.000
 RMSDP=1.18D-05 MaxDP=4.78D-04 DE=-3.31D-05 OVMax= 1.57D-03

 Cycle   8  Pass 1  IDiag  1:
 RMSU=  6.95D-06    CP:  9.90D-01  1.35D+00  9.42D-01  8.71D-01  1.30D+00
                    CP:  1.49D+00  1.15D+00
 E= -1028.80746757000     Delta-E=       -0.000005589346 Rises=F Damp=F
 DIIS: error= 4.87D-05 at cycle   8 NSaved=   8.
 NSaved= 8 IEnMin= 8 EnMin= -1028.80746757000     IErMin= 8 ErrMin= 4.87D-05
 ErrMax= 4.87D-05  0.00D+00 EMaxC= 1.00D-01 BMatC= 4.14D-07 BMatP= 2.37D-06
 IDIUse=1 WtCom= 1.00D+00 WtEn= 0.00D+00
 Coeff-Com: -0.143D-02 0.315D-02 0.552D-02 0.169D-02-0.406D-01-0.949D-01
 Coeff-Com:  0.219D+00 0.908D+00
 Coeff:     -0.143D-02 0.315D-02 0.552D-02 0.169D-02-0.406D-01-0.949D-01
 Coeff:      0.219D+00 0.908D+00
 Gap=     0.249 Goal=   None    Shift=    0.000
 RMSDP=6.62D-06 MaxDP=1.70D-04 DE=-5.59D-06 OVMax= 1.01D-03

 Cycle   9  Pass 1  IDiag  1:
 RMSU=  2.85D-06    CP:  9.90D-01  1.35D+00  9.42D-01  8.71D-01  1.31D+00
                    CP:  1.59D+00  1.41D+00  1.23D+00
 E= -1028.80746896596     Delta-E=       -0.000001395960 Rises=F Damp=F
 DIIS: error= 2.42D-05 at cycle   9 NSaved=   9.
 NSaved= 9 IEnMin= 9 EnMin= -1028.80746896596     IErMin= 9 ErrMin= 2.42D-05
 ErrMax= 2.42D-05  0.00D+00 EMaxC= 1.00D-01 BMatC= 6.38D-08 BMatP= 4.14D-07
 IDIUse=1 WtCom= 1.00D+00 WtEn= 0.00D+00
 Coeff-Com: -0.122D-02 0.241D-02 0.542D-02 0.703D-02-0.907D-02-0.913D-01
 Coeff-Com: -0.320D-01 0.246D+00 0.873D+00
 Coeff:     -0.122D-02 0.241D-02 0.542D-02 0.703D-02-0.907D-02-0.913D-01
 Coeff:     -0.320D-01 0.246D+00 0.873D+00
 Gap=     0.249 Goal=   None    Shift=    0.000
 RMSDP=3.20D-06 MaxDP=9.30D-05 DE=-1.40D-06 OVMax= 5.67D-04

 Cycle  10  Pass 1  IDiag  1:
 RMSU=  1.39D-06    CP:  9.90D-01  1.35D+00  9.42D-01  8.71D-01  1.32D+00
                    CP:  1.63D+00  1.52D+00  1.43D+00  1.27D+00
 E= -1028.80746927511     Delta-E=       -0.000000309149 Rises=F Damp=F
 DIIS: error= 1.16D-05 at cycle  10 NSaved=  10.
 NSaved=10 IEnMin=10 EnMin= -1028.80746927511     IErMin=10 ErrMin= 1.16D-05
 ErrMax= 1.16D-05  0.00D+00 EMaxC= 1.00D-01 BMatC= 2.50D-08 BMatP= 6.38D-08
 IDIUse=1 WtCom= 1.00D+00 WtEn= 0.00D+00
 Coeff-Com: -0.137D-03 0.201D-03 0.958D-03 0.248D-02 0.619D-02-0.188D-01
 Coeff-Com: -0.587D-01-0.133D+00 0.394D+00 0.808D+00
 Coeff:     -0.137D-03 0.201D-03 0.958D-03 0.248D-02 0.619D-02-0.188D-01
 Coeff:     -0.587D-01-0.133D+00 0.394D+00 0.808D+00
 Gap=     0.249 Goal=   None    Shift=    0.000
 RMSDP=1.79D-06 MaxDP=4.06D-05 DE=-3.09D-07 OVMax= 2.86D-04

 Cycle  11  Pass 1  IDiag  1:
 RMSU=  6.41D-07    CP:  9.90D-01  1.35D+00  9.42D-01  8.71D-01  1.32D+00
                    CP:  1.65D+00  1.57D+00  1.53D+00  1.64D+00  1.13D+00
 E= -1028.80746935777     Delta-E=       -0.000000082660 Rises=F Damp=F
 DIIS: error= 5.27D-06 at cycle  11 NSaved=  11.
 NSaved=11 IEnMin=11 EnMin= -1028.80746935777     IErMin=11 ErrMin= 5.27D-06
 ErrMax= 5.27D-06  0.00D+00 EMaxC= 1.00D-01 BMatC= 3.18D-09 BMatP= 2.50D-08
 IDIUse=1 WtCom= 1.00D+00 WtEn= 0.00D+00
 Coeff-Com:  0.285D-03-0.587D-03-0.104D-02-0.982D-03 0.520D-02 0.131D-01
 Coeff-Com: -0.930D-02-0.103D+00-0.213D-01 0.233D+00 0.885D+00
 Coeff:      0.285D-03-0.587D-03-0.104D-02-0.982D-03 0.520D-02 0.131D-01
 Coeff:     -0.930D-02-0.103D+00-0.213D-01 0.233D+00 0.885D+00
 Gap=     0.249 Goal=   None    Shift=    0.000
 RMSDP=7.03D-07 MaxDP=2.16D-05 DE=-8.27D-08 OVMax= 1.35D-04

 Cycle  12  Pass 1  IDiag  1:
 RMSU=  2.43D-07    CP:  9.90D-01  1.35D+00  9.42D-01  8.71D-01  1.32D+00
                    CP:  1.65D+00  1.58D+00  1.56D+00  1.78D+00  1.38D+00
                    CP:  1.14D+00
 E= -1028.80746937165     Delta-E=       -0.000000013879 Rises=F Damp=F
 DIIS: error= 1.31D-06 at cycle  12 NSaved=  12.
 NSaved=12 IEnMin=12 EnMin= -1028.80746937165     IErMin=12 ErrMin= 1.31D-06
 ErrMax= 1.31D-06  0.00D+00 EMaxC= 1.00D-01 BMatC= 9.03D-10 BMatP= 3.18D-09
 IDIUse=1 WtCom= 1.00D+00 WtEn= 0.00D+00
 Coeff-Com:  0.140D-03-0.275D-03-0.590D-03-0.926D-03 0.121D-02 0.894D-02
 Coeff-Com:  0.800D-02-0.200D-01-0.861D-01-0.972D-01 0.359D+00 0.828D+00
 Coeff:      0.140D-03-0.275D-03-0.590D-03-0.926D-03 0.121D-02 0.894D-02
 Coeff:      0.800D-02-0.200D-01-0.861D-01-0.972D-01 0.359D+00 0.828D+00
 Gap=     0.249 Goal=   None    Shift=    0.000
 RMSDP=3.64D-07 MaxDP=8.49D-06 DE=-1.39D-08 OVMax= 5.67D-05

 Cycle  13  Pass 1  IDiag  1:
 RMSU=  9.53D-08    CP:  9.90D-01  1.35D+00  9.42D-01  8.71D-01  1.32D+00
                    CP:  1.66D+00  1.59D+00  1.58D+00  1.86D+00  1.47D+00
                    CP:  1.39D+00  1.09D+00
 E= -1028.80746937431     Delta-E=       -0.000000002658 Rises=F Damp=F
 DIIS: error= 5.52D-07 at cycle  13 NSaved=  13.
 NSaved=13 IEnMin=13 EnMin= -1028.80746937431     IErMin=13 ErrMin= 5.52D-07
 ErrMax= 5.52D-07  0.00D+00 EMaxC= 1.00D-01 BMatC= 6.11D-11 BMatP= 9.03D-10
 IDIUse=1 WtCom= 1.00D+00 WtEn= 0.00D+00
 Coeff-Com:  0.149D-05 0.513D-06-0.238D-04-0.145D-03-0.188D-03 0.873D-03
 Coeff-Com:  0.337D-02 0.689D-02-0.173D-01-0.600D-01-0.922D-02 0.223D+00
 Coeff-Com:  0.852D+00
 Coeff:      0.149D-05 0.513D-06-0.238D-04-0.145D-03-0.188D-03 0.873D-03
 Coeff:      0.337D-02 0.689D-02-0.173D-01-0.600D-01-0.922D-02 0.223D+00
 Coeff:      0.852D+00
 Gap=     0.249 Goal=   None    Shift=    0.000
 RMSDP=8.17D-08 MaxDP=2.36D-06 DE=-2.66D-09 OVMax= 1.16D-05

 Cycle  14  Pass 1  IDiag  1:
 RMSU=  3.91D-08    CP:  9.90D-01  1.35D+00  9.42D-01  8.71D-01  1.32D+00
                    CP:  1.66D+00  1.59D+00  1.58D+00  1.88D+00  1.50D+00
                    CP:  1.45D+00  1.23D+00  1.07D+00
 E= -1028.80746937446     Delta-E=       -0.000000000157 Rises=F Damp=F
 DIIS: error= 2.38D-07 at cycle  14 NSaved=  14.
 NSaved=14 IEnMin=14 EnMin= -1028.80746937446     IErMin=14 ErrMin= 2.38D-07
 ErrMax= 2.38D-07  0.00D+00 EMaxC= 1.00D-01 BMatC= 1.53D-11 BMatP= 6.11D-11
 IDIUse=1 WtCom= 1.00D+00 WtEn= 0.00D+00
 Coeff-Com: -0.144D-04 0.298D-04 0.538D-04 0.322D-04-0.205D-03-0.533D-03
 Coeff-Com:  0.709D-03 0.535D-02 0.185D-02-0.171D-01-0.430D-01 0.436D-02
 Coeff-Com:  0.399D+00 0.649D+00
 Coeff:     -0.144D-04 0.298D-04 0.538D-04 0.322D-04-0.205D-03-0.533D-03
 Coeff:      0.709D-03 0.535D-02 0.185D-02-0.171D-01-0.430D-01 0.436D-02
 Coeff:      0.399D+00 0.649D+00
 Gap=     0.249 Goal=   None    Shift=    0.000
 RMSDP=2.30D-08 MaxDP=5.97D-07 DE=-1.57D-10 OVMax= 1.96D-06

 Cycle  15  Pass 1  IDiag  1:
 RMSU=  1.43D-08    CP:  9.90D-01  1.35D+00  9.42D-01  8.71D-01  1.32D+00
                    CP:  1.66D+00  1.59D+00  1.58D+00  1.88D+00  1.50D+00
                    CP:  1.46D+00  1.26D+00  1.20D+00  9.21D-01
 E= -1028.80746937448     Delta-E=       -0.000000000018 Rises=F Damp=F
 DIIS: error= 6.74D-08 at cycle  15 NSaved=  15.
 NSaved=15 IEnMin=15 EnMin= -1028.80746937448     IErMin=15 ErrMin= 6.74D-08
 ErrMax= 6.74D-08  0.00D+00 EMaxC= 1.00D-01 BMatC= 1.02D-12 BMatP= 1.53D-11
 IDIUse=1 WtCom= 1.00D+00 WtEn= 0.00D+00
 Coeff-Com: -0.393D-05 0.741D-05 0.191D-04 0.339D-04-0.278D-04-0.338D-03
 Coeff-Com: -0.497D-03 0.582D-04 0.387D-02 0.698D-02-0.808D-02-0.418D-01
 Coeff-Com: -0.381D-01 0.142D+00 0.935D+00
 Coeff:     -0.393D-05 0.741D-05 0.191D-04 0.339D-04-0.278D-04-0.338D-03
 Coeff:     -0.497D-03 0.582D-04 0.387D-02 0.698D-02-0.808D-02-0.418D-01
 Coeff:     -0.381D-01 0.142D+00 0.935D+00
 Gap=     0.249 Goal=   None    Shift=    0.000
 RMSDP=9.84D-09 MaxDP=2.10D-07 DE=-1.75D-11 OVMax= 1.09D-06

 Error on total polarization charges =  0.00848
 SCF Done:  E(RwB97XD) =  -1028.80746937     A.U. after   15 cycles
            NFock= 15  Conv=0.98D-08     -V/T= 2.0050
 KE= 1.023675411011D+03 PE=-4.605019110507D+03 EE= 1.456011225939D+03
 Leave Link  502 at Tue Oct 27 21:24:36 2020, MaxMem=  7784628224 cpu:             833.1 elap:              84.1
 (Enter /gpfs/loomis/apps/avx/software/Gaussian/16-C.01_AVX/g16/l601.exe)
 Copying SCF densities to generalized density rwf, IOpCl= 0 IROHF=0.

 **********************************************************************

            Population analysis using the SCF Density.

 **********************************************************************

 Alpha  occ. eigenvalues --  -89.10347 -19.22896 -14.50203 -10.41417 -10.36720
 Alpha  occ. eigenvalues --  -10.36671 -10.36015 -10.33169 -10.32423 -10.32204
 Alpha  occ. eigenvalues --  -10.32137 -10.31823 -10.31637 -10.31175 -10.29582
 Alpha  occ. eigenvalues --  -10.28940  -8.12260  -6.07134  -6.06775  -6.06287
 Alpha  occ. eigenvalues --   -1.13114  -1.09897  -0.97689  -0.95095  -0.92809
 Alpha  occ. eigenvalues --   -0.89033  -0.85970  -0.83854  -0.81712  -0.75957
 Alpha  occ. eigenvalues --   -0.71896  -0.71342  -0.68588  -0.68016  -0.64279
 Alpha  occ. eigenvalues --   -0.60817  -0.59433  -0.57246  -0.55294  -0.55176
 Alpha  occ. eigenvalues --   -0.54513  -0.53482  -0.52817  -0.51015  -0.49775
 Alpha  occ. eigenvalues --   -0.49118  -0.47889  -0.46579  -0.45234  -0.45144
 Alpha  occ. eigenvalues --   -0.44119  -0.43114  -0.41903  -0.40650  -0.36663
 Alpha  occ. eigenvalues --   -0.33579  -0.33177  -0.31278  -0.26764
 Alpha virt. eigenvalues --   -0.01901   0.04105   0.06302   0.06426   0.08579
 Alpha virt. eigenvalues --    0.10465   0.12946   0.14782   0.16094   0.17609
 Alpha virt. eigenvalues --    0.18910   0.20509   0.21353   0.21684   0.22806
 Alpha virt. eigenvalues --    0.23552   0.23834   0.24938   0.28643   0.29690
 Alpha virt. eigenvalues --    0.31623   0.33170   0.35436   0.35835   0.36618
 Alpha virt. eigenvalues --    0.38447   0.38722   0.40320   0.42624   0.43448
 Alpha virt. eigenvalues --    0.46445   0.48209   0.49868   0.51303   0.51525
 Alpha virt. eigenvalues --    0.52529   0.53043   0.53465   0.54781   0.55008
 Alpha virt. eigenvalues --    0.55872   0.56124   0.56375   0.56887   0.57994
 Alpha virt. eigenvalues --    0.58236   0.58356   0.59113   0.59510   0.59978
 Alpha virt. eigenvalues --    0.60281   0.61164   0.61969   0.62222   0.62940
 Alpha virt. eigenvalues --    0.64940   0.65550   0.66973   0.67963   0.68749
 Alpha virt. eigenvalues --    0.70110   0.70658   0.71987   0.72297   0.72800
 Alpha virt. eigenvalues --    0.72984   0.74794   0.75153   0.76242   0.76986
 Alpha virt. eigenvalues --    0.79117   0.79251   0.79920   0.81964   0.82028
 Alpha virt. eigenvalues --    0.82824   0.87723   0.88899   0.90833   0.92556
 Alpha virt. eigenvalues --    0.93949   0.94830   0.95787   0.96487   0.96852
 Alpha virt. eigenvalues --    0.98612   0.98876   0.99847   1.00229   1.01234
 Alpha virt. eigenvalues --    1.02546   1.04947   1.05726   1.06676   1.07384
 Alpha virt. eigenvalues --    1.07902   1.08439   1.10283   1.10960   1.11558
 Alpha virt. eigenvalues --    1.11801   1.12472   1.13127   1.14862   1.15267
 Alpha virt. eigenvalues --    1.16360   1.18717   1.20141   1.23373   1.24014
 Alpha virt. eigenvalues --    1.26735   1.27246   1.33013   1.33019   1.34380
 Alpha virt. eigenvalues --    1.34872   1.36136   1.38427   1.40876   1.45926
 Alpha virt. eigenvalues --    1.49104   1.49636   1.52437   1.53488   1.55087
 Alpha virt. eigenvalues --    1.56504   1.56778   1.57422   1.58781   1.59566
 Alpha virt. eigenvalues --    1.59740   1.60738   1.64977   1.66067   1.67777
 Alpha virt. eigenvalues --    1.68525   1.69367   1.70122   1.70618   1.70925
 Alpha virt. eigenvalues --    1.71797   1.72275   1.73175   1.73620   1.74979
 Alpha virt. eigenvalues --    1.77740   1.79724   1.80304   1.80861   1.82616
 Alpha virt. eigenvalues --    1.82900   1.83514   1.84774   1.85224   1.85440
 Alpha virt. eigenvalues --    1.87007   1.88917   1.90242   1.91560   1.91727
 Alpha virt. eigenvalues --    1.92514   1.92837   1.94550   1.94815   1.96720
 Alpha virt. eigenvalues --    1.97659   2.00161   2.01279   2.03534   2.04152
 Alpha virt. eigenvalues --    2.04622   2.07277   2.09164   2.10371   2.12562
 Alpha virt. eigenvalues --    2.15005   2.16354   2.17069   2.21028   2.23857
 Alpha virt. eigenvalues --    2.26963   2.30670   2.32367   2.38560   2.39828
 Alpha virt. eigenvalues --    2.41202   2.42251   2.44666   2.46740   2.46763
 Alpha virt. eigenvalues --    2.48492   2.50554   2.52587   2.53211   2.61517
 Alpha virt. eigenvalues --    2.61904   2.70127   2.73663   2.74498   2.79920
 Alpha virt. eigenvalues --    2.81619   2.83201   2.85465   2.88662   2.89364
 Alpha virt. eigenvalues --    2.92522   3.01742   3.12515   3.24469   3.41386
 Alpha virt. eigenvalues --    3.48485   3.56746   3.57823   3.81063
          Condensed to atoms (all electrons):
               1          2          3          4          5          6
     1  C    4.725339   0.484001   0.003046  -0.049494  -0.013021   0.521905
     2  C    0.484001   5.334175   0.320837  -0.055265  -0.064060  -0.011348
     3  C    0.003046   0.320837   4.799579   0.517256  -0.005235  -0.063551
     4  C   -0.049494  -0.055265   0.517256   4.777439   0.522695  -0.016806
     5  C   -0.013021  -0.064060  -0.005235   0.522695   4.719602   0.496833
     6  C    0.521905  -0.011348  -0.063551  -0.016806   0.496833   4.739181
     7  H    0.404085  -0.040886   0.008564  -0.000496   0.008077  -0.037738
     8  H   -0.000636   0.010730  -0.025608   0.392969  -0.041560   0.007381
     9  H    0.008500  -0.000389   0.008253  -0.038606   0.405278  -0.043816
    10  H   -0.041980   0.009565  -0.000591   0.008744  -0.043269   0.406831
    11  N    0.004683  -0.045650   0.403776  -0.047053   0.002801   0.000333
    12  S   -0.061432   0.336748  -0.118238   0.004810   0.000241   0.003462
    13  C   -0.000169   0.002265   0.011481  -0.000687   0.000009  -0.000000
    14  C   -0.000003   0.000049   0.000156   0.000005  -0.000000  -0.000000
    15  C    0.000001  -0.000320   0.000894   0.000095  -0.000000   0.000000
    16  C    0.000000  -0.000001   0.000004  -0.000000   0.000000   0.000000
    17  H   -0.000002   0.000052  -0.000001  -0.000000   0.000000  -0.000000
    18  C    0.000000   0.000007  -0.000034  -0.000000  -0.000000   0.000000
    19  C   -0.000000   0.000000   0.000001  -0.000000   0.000000   0.000000
    20  H   -0.000000  -0.000000  -0.000000   0.000000   0.000000  -0.000000
    21  H   -0.000000   0.000000   0.000001  -0.000000   0.000000   0.000000
    22  H    0.000000  -0.000000  -0.000000  -0.000000   0.000000  -0.000000
    23  C    0.003402  -0.049535  -0.109489   0.002629   0.000208  -0.000183
    24  O    0.000002  -0.000161  -0.001059  -0.000040  -0.000001  -0.000000
    25  H    0.000062   0.006641  -0.023315  -0.004347  -0.000075  -0.000001
               7          8          9         10         11         12
     1  C    0.404085  -0.000636   0.008500  -0.041980   0.004683  -0.061432
     2  C   -0.040886   0.010730  -0.000389   0.009565  -0.045650   0.336748
     3  C    0.008564  -0.025608   0.008253  -0.000591   0.403776  -0.118238
     4  C   -0.000496   0.392969  -0.038606   0.008744  -0.047053   0.004810
     5  C    0.008077  -0.041560   0.405278  -0.043269   0.002801   0.000241
     6  C   -0.037738   0.007381  -0.043816   0.406831   0.000333   0.003462
     7  H    0.651457   0.000029  -0.000136  -0.011915  -0.000105  -0.006318
     8  H    0.000029   0.642404  -0.011578  -0.000125  -0.003760  -0.000225
     9  H   -0.000136  -0.011578   0.659280  -0.012179  -0.000117   0.000022
    10  H   -0.011915  -0.000125  -0.012179   0.659546   0.000002  -0.000130
    11  N   -0.000105  -0.003760  -0.000117   0.000002   6.263040  -0.056162
    12  S   -0.006318  -0.000225   0.000022  -0.000130  -0.056162  15.435047
    13  C    0.000006   0.000057  -0.000000  -0.000000  -0.028536  -0.060719
    14  C    0.000000   0.000001   0.000000  -0.000000   0.002998  -0.005311
    15  C   -0.000000  -0.000006   0.000000   0.000000  -0.004078   0.003451
    16  C   -0.000000  -0.000000  -0.000000   0.000000  -0.000096  -0.000060
    17  H    0.000001   0.000000  -0.000000  -0.000000   0.000231   0.005528
    18  C   -0.000000  -0.000000  -0.000000  -0.000000  -0.000561  -0.000092
    19  C    0.000000   0.000000  -0.000000   0.000000   0.000058   0.000018
    20  H   -0.000000  -0.000000   0.000000   0.000000   0.000001  -0.000000
    21  H   -0.000000   0.000000  -0.000000   0.000000   0.000027   0.000003
    22  H    0.000000  -0.000000  -0.000000  -0.000000  -0.000000  -0.000000
    23  C    0.000100  -0.000705   0.000007   0.000004   0.528382   0.324335
    24  O   -0.000000  -0.000300   0.000000  -0.000000  -0.082928  -0.000352
    25  H    0.000003   0.001255  -0.000010  -0.000000   0.270111   0.002951
              13         14         15         16         17         18
     1  C   -0.000169  -0.000003   0.000001   0.000000  -0.000002   0.000000
     2  C    0.002265   0.000049  -0.000320  -0.000001   0.000052   0.000007
     3  C    0.011481   0.000156   0.000894   0.000004  -0.000001  -0.000034
     4  C   -0.000687   0.000005   0.000095  -0.000000  -0.000000  -0.000000
     5  C    0.000009  -0.000000  -0.000000   0.000000   0.000000  -0.000000
     6  C   -0.000000  -0.000000   0.000000   0.000000  -0.000000   0.000000
     7  H    0.000006   0.000000  -0.000000  -0.000000   0.000001  -0.000000
     8  H    0.000057   0.000001  -0.000006  -0.000000   0.000000  -0.000000
     9  H   -0.000000   0.000000   0.000000  -0.000000  -0.000000  -0.000000
    10  H   -0.000000  -0.000000   0.000000   0.000000  -0.000000  -0.000000
    11  N   -0.028536   0.002998  -0.004078  -0.000096   0.000231  -0.000561
    12  S   -0.060719  -0.005311   0.003451  -0.000060   0.005528  -0.000092
    13  C    5.399107   0.450497   0.226165  -0.007080  -0.041363  -0.039706
    14  C    0.450497   4.821938   0.008707   0.534186   0.400915  -0.057630
    15  C    0.226165   0.008707   4.745498  -0.059380   0.007138   0.496275
    16  C   -0.007080   0.534186  -0.059380   4.770176  -0.034528  -0.020129
    17  H   -0.041363   0.400915   0.007138  -0.034528   0.681424  -0.000818
    18  C   -0.039706  -0.057630   0.496275  -0.020129  -0.000818   4.834350
    19  C   -0.049611  -0.017260  -0.012000   0.480890   0.008437   0.509297
    20  H    0.009010  -0.036290  -0.000216   0.400605  -0.012620   0.008325
    21  H    0.014285  -0.000634  -0.022291   0.007530   0.000049   0.373992
    22  H   -0.001315   0.009208   0.008980  -0.045851  -0.000174  -0.039839
    23  C    0.345657  -0.094376  -0.079897   0.006997  -0.019354   0.007942
    24  O   -0.082800   0.005358   0.581197  -0.000055  -0.000067  -0.062985
    25  H   -0.026669  -0.000466  -0.025447   0.000019  -0.000038   0.004076
              19         20         21         22         23         24
     1  C   -0.000000  -0.000000  -0.000000   0.000000   0.003402   0.000002
     2  C    0.000000  -0.000000   0.000000  -0.000000  -0.049535  -0.000161
     3  C    0.000001  -0.000000   0.000001  -0.000000  -0.109489  -0.001059
     4  C   -0.000000   0.000000  -0.000000  -0.000000   0.002629  -0.000040
     5  C    0.000000   0.000000   0.000000   0.000000   0.000208  -0.000001
     6  C    0.000000  -0.000000   0.000000  -0.000000  -0.000183  -0.000000
     7  H    0.000000  -0.000000  -0.000000   0.000000   0.000100  -0.000000
     8  H    0.000000  -0.000000   0.000000  -0.000000  -0.000705  -0.000300
     9  H   -0.000000   0.000000  -0.000000  -0.000000   0.000007   0.000000
    10  H    0.000000   0.000000   0.000000  -0.000000   0.000004  -0.000000
    11  N    0.000058   0.000001   0.000027  -0.000000   0.528382  -0.082928
    12  S    0.000018  -0.000000   0.000003  -0.000000   0.324335  -0.000352
    13  C   -0.049611   0.009010   0.014285  -0.001315   0.345657  -0.082800
    14  C   -0.017260  -0.036290  -0.000634   0.009208  -0.094376   0.005358
    15  C   -0.012000  -0.000216  -0.022291   0.008980  -0.079897   0.581197
    16  C    0.480890   0.400605   0.007530  -0.045851   0.006997  -0.000055
    17  H    0.008437  -0.012620   0.000049  -0.000174  -0.019354  -0.000067
    18  C    0.509297   0.008325   0.373992  -0.039839   0.007942  -0.062985
    19  C    4.736224  -0.047478  -0.046994   0.404067   0.000358   0.004167
    20  H   -0.047478   0.686248  -0.000173  -0.012310  -0.000350   0.000001
    21  H   -0.046994  -0.000173   0.674227  -0.012356  -0.000420   0.005275
    22  H    0.404067  -0.012310  -0.012356   0.672330   0.000008  -0.000085
    23  C    0.000358  -0.000350  -0.000420   0.000008   5.080886  -0.010977
    24  O    0.004167   0.000001   0.005275  -0.000085  -0.010977   7.855238
    25  H   -0.000383  -0.000001   0.000013   0.000009   0.002832   0.174761
              25
     1  C    0.000062
     2  C    0.006641
     3  C   -0.023315
     4  C   -0.004347
     5  C   -0.000075
     6  C   -0.000001
     7  H    0.000003
     8  H    0.001255
     9  H   -0.000010
    10  H   -0.000000
    11  N    0.270111
    12  S    0.002951
    13  C   -0.026669
    14  C   -0.000466
    15  C   -0.025447
    16  C    0.000019
    17  H   -0.000038
    18  C    0.004076
    19  C   -0.000383
    20  H   -0.000001
    21  H    0.000013
    22  H    0.000009
    23  C    0.002832
    24  O    0.174761
    25  H    0.432063
 Mulliken charges:
               1
     1  C    0.011712
     2  C   -0.237456
     3  C    0.273272
     4  C   -0.013847
     5  C    0.011477
     6  C   -0.002481
     7  H    0.025272
     8  H    0.029678
     9  H    0.025491
    10  H    0.025494
    11  N   -0.207395
    12  S    0.192425
    13  C   -0.119884
    14  C   -0.022050
    15  C    0.125236
    16  C   -0.033227
    17  H    0.005193
    18  C   -0.012470
    19  C    0.030209
    20  H    0.005246
    21  H    0.007468
    22  H    0.017329
    23  C    0.061542
    24  O   -0.384187
    25  H    0.185955
 Sum of Mulliken charges =  -0.00000
 Mulliken charges with hydrogens summed into heavy atoms:
               1
     1  C    0.036984
     2  C   -0.237456
     3  C    0.273272
     4  C    0.015831
     5  C    0.036967
     6  C    0.023013
    11  N   -0.021441
    12  S    0.192425
    13  C   -0.119884
    14  C   -0.016857
    15  C    0.125236
    16  C   -0.027980
    18  C   -0.005002
    19  C    0.047537
    23  C    0.061542
    24  O   -0.384187
 Electronic spatial extent (au):  <R**2>=           4355.5994
 Charge=             -0.0000 electrons
 Dipole moment (field-independent basis, Debye):
    X=              1.0046    Y=             -4.4237    Z=             -0.0000  Tot=              4.5363
 Quadrupole moment (field-independent basis, Debye-Ang):
   XX=            -83.0900   YY=            -92.6613   ZZ=           -104.3139
   XY=             -6.8164   XZ=             -0.0001   YZ=              0.0001
 Traceless Quadrupole moment (field-independent basis, Debye-Ang):
   XX=             10.2651   YY=              0.6938   ZZ=            -10.9589
   XY=             -6.8164   XZ=             -0.0001   YZ=              0.0001
 Octapole moment (field-independent basis, Debye-Ang**2):
  XXX=             28.7225  YYY=            -43.2165  ZZZ=             -0.0001  XYY=             -0.9685
  XXY=             -6.3295  XXZ=             -0.0001  XZZ=              1.8455  YZZ=              1.6709
  YYZ=              0.0004  XYZ=             -0.0006
 Hexadecapole moment (field-independent basis, Debye-Ang**3):
 XXXX=          -2612.6956 YYYY=          -2651.5617 ZZZZ=           -113.3964 XXXY=            811.4768
 XXXZ=              0.0097 YYYX=            766.8954 YYYZ=             -0.0117 ZZZX=              0.0130
 ZZZY=             -0.0186 XXYY=           -852.5193 XXZZ=           -573.4339 YYZZ=           -551.9827
 XXYZ=             -0.0029 YYXZ=              0.0000 ZZXY=            357.6027
 N-N= 1.096525004182D+03 E-N=-4.605019110126D+03  KE= 1.023675411011D+03
 No NMR shielding tensors so no spin-rotation constants.
 Leave Link  601 at Tue Oct 27 21:24:36 2020, MaxMem=  7784628224 cpu:               2.0 elap:               0.3
 (Enter /gpfs/loomis/apps/avx/software/Gaussian/16-C.01_AVX/g16/l701.exe)
 ... and contract with generalized density number  0.
 Compute integral first derivatives.
 R6Disp: Adding Grimme-D2 dispersion energy 1st derivatives to the gradient.
 D1PCM: PCM CHGder 1st derivatives, ID1Alg=3 FixD1E=F DoIter=F DoCFld=F I1PDM=0.
 GePol: Maximum number of non-zero 1st derivatives   =     271
 Leave Link  701 at Tue Oct 27 21:24:39 2020, MaxMem=  7784628224 cpu:              25.4 elap:               2.9
 (Enter /gpfs/loomis/apps/avx/software/Gaussian/16-C.01_AVX/g16/l702.exe)
 L702 exits ... SP integral derivatives will be done elsewhere.
 Leave Link  702 at Tue Oct 27 21:24:39 2020, MaxMem=  7784628224 cpu:               0.3 elap:               0.0
 (Enter /gpfs/loomis/apps/avx/software/Gaussian/16-C.01_AVX/g16/l703.exe)
 Integral derivatives from FoFJK, PRISM(SPDF).
 Compute integral first derivatives, UseDBF=F ICtDFT=           0.
 Calling FoFJK, ICntrl=      2127 FMM=F ISym2X=0 I1Cent= 0 IOpClX= 0 NMat=1 NMatS=1 NMatT=0.
 FoFJK:  IHMeth= 1 ICntrl=    2127 DoSepK=T KAlg= 0 I1Cent=           0 FoldK=F
 IRaf=         1 NMat=       1 IRICut=       1 DoRegI=T DoRafI=F ISym2E= 0 IDoP0=0 IntGTp=1.
 FoFCou: FMM=F IPFlag=           0 FMFlag=      100000 FMFlg1=         800
         NFxFlg=           0 DoJE=F BraDBF=F KetDBF=F FulRan=T
         wScrn=  0.000000 ICntrl=      2527 IOpCl=  0 I1Cent=           0 NGrid=           0
         NMat0=    1 NMatS0=      1 NMatT0=    0 NMatD0=    1 NMtDS0=    0 NMtDT0=    0
 Symmetry not used in FoFCou.
 Leave Link  703 at Tue Oct 27 21:24:53 2020, MaxMem=  7784628224 cpu:             140.2 elap:              14.1
 (Enter /gpfs/loomis/apps/avx/software/Gaussian/16-C.01_AVX/g16/l716.exe)
 Dipole        = 3.95228527D-01-1.74041295D+00-1.74975536D-05
 -------------------------------------------------------------------
 Center     Atomic                   Forces (Hartrees/Bohr)
 Number     Number              X              Y              Z
 -------------------------------------------------------------------
      1        6           0.002770139   -0.000417963    0.000000026
      2        6           0.006528504    0.010627652   -0.000000058
      3        6           0.015772712   -0.022278565   -0.000000091
      4        6          -0.006710528    0.000540443   -0.000000015
      5        6          -0.000045758   -0.003671098   -0.000000016
      6        6          -0.004204475    0.001736383    0.000000015
      7        1           0.000325889    0.000984892   -0.000000044
      8        1          -0.000210626   -0.000941292   -0.000000002
      9        1          -0.000897338   -0.000140625   -0.000000003
     10        1          -0.000623126    0.000453119    0.000000007
     11        7          -0.042718568   -0.011015335    0.000000212
     12       16           0.006474419    0.014475276   -0.000000026
     13        6           0.008203720    0.027751013    0.000000370
     14        6          -0.021074136    0.017350193    0.000000987
     15        6           0.005942190   -0.020572444   -0.000000574
     16        6           0.002066325   -0.025622891   -0.000000704
     17        1          -0.000852972    0.000162005    0.000000056
     18        6          -0.017799859    0.000233981    0.000000247
     19        6           0.020893923   -0.004048814   -0.000000312
     20        1           0.000606692   -0.000462844   -0.000000054
     21        1          -0.000806485   -0.000816931   -0.000000017
     22        1          -0.000218867    0.000330541   -0.000000070
     23        6           0.019690421    0.004340138   -0.000000132
     24        8           0.005206085   -0.000946089   -0.000000002
     25        1           0.001681719    0.011949255    0.000000204
 -------------------------------------------------------------------
 Cartesian Forces:  Max     0.042718568 RMS     0.009827737
 Leave Link  716 at Tue Oct 27 21:24:53 2020, MaxMem=  7784628224 cpu:               0.3 elap:               0.1
 (Enter /gpfs/loomis/apps/avx/software/Gaussian/16-C.01_AVX/g16/l103.exe)

 GradGradGradGradGradGradGradGradGradGradGradGradGradGradGradGradGradGrad
 Berny optimization.
 FormGI is forming the generalized inverse of G from B-inverse, IUseBI=4.
 Internal  Forces:  Max     0.028087109 RMS     0.005451327
 Search for a local minimum.
 Step number   1 out of a maximum of  146
 All quantities printed in internal units (Hartrees-Bohrs-Radians)
 RMS Force = .54919D-02 SwitMx=.10000D-02 MixMth= 1
 Mixed Optimization -- RFO/linear search
 Second derivative matrix not updated -- first step.
 ITU=  0
     Eigenvalues ---    0.01271   0.01438   0.01475   0.01643   0.01652
     Eigenvalues ---    0.01727   0.01772   0.01985   0.01987   0.02032
     Eigenvalues ---    0.02037   0.02043   0.02061   0.02065   0.02068
     Eigenvalues ---    0.02091   0.02120   0.02126   0.02132   0.02140
     Eigenvalues ---    0.02182   0.02270   0.16000   0.16000   0.16000
     Eigenvalues ---    0.16000   0.16000   0.16000   0.16000   0.16003
     Eigenvalues ---    0.17294   0.22002   0.22012   0.22531   0.22582
     Eigenvalues ---    0.24312   0.24463   0.24584   0.25000   0.25000
     Eigenvalues ---    0.26768   0.28379   0.28491   0.32440   0.34440
     Eigenvalues ---    0.34568   0.34592   0.34600   0.34605   0.34628
     Eigenvalues ---    0.34635   0.34718   0.37188   0.39816   0.41132
     Eigenvalues ---    0.41549   0.42864   0.42952   0.43484   0.44750
     Eigenvalues ---    0.45144   0.45799   0.46522   0.47404   0.49834
     Eigenvalues ---    0.52288   0.711141000.000001000.000001000.00000
     Eigenvalues --- 1000.000001000.000001000.000001000.000001000.00000
     Eigenvalues --- 1000.000001000.000001000.000001000.000001000.00000
     Eigenvalues --- 1000.000001000.000001000.000001000.000001000.00000
     Eigenvalues --- 1000.000001000.000001000.000001000.000001000.00000
     Eigenvalues --- 1000.000001000.000001000.000001000.000001000.00000
     Eigenvalues --- 1000.000001000.000001000.000001000.000001000.00000
     Eigenvalues --- 1000.000001000.000001000.000001000.000001000.00000
     Eigenvalues --- 1000.000001000.000001000.000001000.000001000.00000
     Eigenvalues --- 1000.000001000.000001000.000001000.000001000.00000
     Eigenvalues --- 1000.000001000.000001000.000001000.000001000.00000
     Eigenvalues --- 1000.000001000.000001000.000001000.000001000.00000
     Eigenvalues --- 1000.000001000.000001000.000001000.000001000.00000
     Eigenvalues --- 1000.000001000.000001000.000001000.000001000.00000
     Eigenvalues --- 1000.00000
 RFO step:  Lambda=-1.05969873D-02 EMin= 1.27096413D-02
 Linear search not attempted -- first point.
 Iteration  1 RMS(Cart)=  0.03090839 RMS(Int)=  0.00027395
 Iteration  2 RMS(Cart)=  0.00032983 RMS(Int)=  0.00009243
 Iteration  3 RMS(Cart)=  0.00000015 RMS(Int)=  0.00009243
 Iteration  1 RMS(Cart)=  0.00000003 RMS(Int)=  0.00000001
 ITry= 1 IFail=0 DXMaxC= 1.25D-01 DCOld= 1.00D+10 DXMaxT= 3.00D-01 DXLimC= 3.00D+00 Rises=F
 Variable       Old X    -DE/DX   Delta X   Delta X   Delta X     New X
                                 (Linear)    (Quad)   (Total)
    R1        2.63734  -0.00156   0.00000  -0.00304  -0.00298   2.63436
    R2        2.64218  -0.00556   0.00000  -0.01140  -0.01137   2.63081
    R3        2.06342  -0.00104   0.00000  -0.00284  -0.00284   2.06058
    R4        2.68567  -0.01508   0.00000  -0.03131  -0.03111   2.65456
    R5        3.33907  -0.00181   0.00000  -0.00561  -0.00558   3.33349
    R6        2.65666  -0.00676   0.00000  -0.01517  -0.01519   2.64147
    R7        2.56187   0.01705   0.00000   0.03155   0.03152   2.59338
    R8        2.61965   0.00066   0.00000   0.00132   0.00127   2.62092
    R9        2.06284  -0.00091   0.00000  -0.00255  -0.00255   2.06028
   R10        2.65567  -0.00297   0.00000  -0.00539  -0.00536   2.65031
   R11        2.06382  -0.00089   0.00000  -0.00248  -0.00247   2.06135
   R12        2.06271  -0.00072   0.00000  -0.00202  -0.00202   2.06070
   R13        2.56553  -0.02730   0.00000  -0.05222  -0.05237   2.51316
   R14        2.12862   0.01139   0.00000   0.04346   0.04381   2.17243
   R15        3.35642  -0.01144   0.00000  -0.03800  -0.03786   3.31856
   R16        2.64327   0.00973   0.00000   0.02191   0.02216   2.66543
   R17        2.81981  -0.02257   0.00000  -0.06346  -0.06333   2.75648
   R18        2.69732  -0.00592   0.00000  -0.01520  -0.01526   2.68206
   R19        2.66504  -0.02809   0.00000  -0.06379  -0.06371   2.60133
   R20        2.06593   0.00018   0.00000   0.00053   0.00053   2.06647
   R21        2.67926   0.00210   0.00000   0.00355   0.00331   2.68256
   R22        2.42077   0.00487   0.00000   0.00779   0.00792   2.42868
   R23        2.65491   0.00367   0.00000   0.00818   0.00819   2.66309
   R24        2.06322  -0.00054   0.00000  -0.00155  -0.00155   2.06166
   R25        2.63035  -0.01003   0.00000  -0.02202  -0.02228   2.60807
   R26        2.06330  -0.00105   0.00000  -0.00293  -0.00293   2.06036
   R27        2.06135   0.00042   0.00000   0.00111   0.00111   2.06246
    A1        2.06705  -0.00119   0.00000  -0.00501  -0.00501   2.06204
    A2        2.11191   0.00048   0.00000   0.00210   0.00211   2.11403
    A3        2.10422   0.00071   0.00000   0.00291   0.00290   2.10712
    A4        2.10370   0.00248   0.00000   0.00704   0.00701   2.11071
    A5        2.25797   0.00080   0.00000   0.00156   0.00155   2.25953
    A6        1.92152  -0.00328   0.00000  -0.00860  -0.00856   1.91295
    A7        2.10131   0.00161   0.00000   0.00334   0.00335   2.10466
    A8        1.99028  -0.00506   0.00000  -0.01394  -0.01379   1.97650
    A9        2.19159   0.00345   0.00000   0.01060   0.01044   2.20203
   A10        2.06883  -0.00090   0.00000  -0.00259  -0.00257   2.06626
   A11        2.08752   0.00064   0.00000   0.00219   0.00218   2.08970
   A12        2.12683   0.00026   0.00000   0.00039   0.00039   2.12722
   A13        2.11315  -0.00116   0.00000  -0.00213  -0.00214   2.11101
   A14        2.08444   0.00062   0.00000   0.00125   0.00125   2.08569
   A15        2.08560   0.00054   0.00000   0.00088   0.00089   2.08649
   A16        2.11233  -0.00083   0.00000  -0.00066  -0.00064   2.11169
   A17        2.08239   0.00020   0.00000  -0.00087  -0.00088   2.08151
   A18        2.08846   0.00063   0.00000   0.00153   0.00152   2.08998
   A19        1.99215   0.00549   0.00000   0.01590   0.01574   2.00789
   A20        2.40953  -0.00376   0.00000  -0.00784  -0.00762   2.40192
   A21        1.88150  -0.00173   0.00000  -0.00805  -0.00812   1.87338
   A22        1.55896   0.00422   0.00000   0.01360   0.01352   1.57248
   A23        2.04809   0.01236   0.00000   0.04845   0.04867   2.09676
   A24        2.19675  -0.00262   0.00000  -0.01269  -0.01273   2.18402
   A25        2.03835  -0.00975   0.00000  -0.03576  -0.03594   2.00241
   A26        2.11216  -0.00068   0.00000  -0.00324  -0.00295   2.10920
   A27        2.09077   0.00128   0.00000   0.00728   0.00714   2.09791
   A28        2.08026  -0.00060   0.00000  -0.00404  -0.00419   2.07607
   A29        2.08330  -0.01208   0.00000  -0.04440  -0.04443   2.03887
   A30        2.11129   0.00305   0.00000   0.01470   0.01486   2.12615
   A31        2.08859   0.00904   0.00000   0.02969   0.02957   2.11817
   A32        2.12577  -0.00866   0.00000  -0.03853  -0.03843   2.08735
   A33        2.07070   0.00386   0.00000   0.01649   0.01644   2.08714
   A34        2.08671   0.00480   0.00000   0.02204   0.02199   2.10870
   A35        2.11426   0.00060   0.00000   0.00195   0.00159   2.11585
   A36        2.03314   0.00004   0.00000   0.00088   0.00105   2.03419
   A37        2.13579  -0.00064   0.00000  -0.00283  -0.00265   2.13314
   A38        2.08279   0.00845   0.00000   0.03577   0.03555   2.11833
   A39        2.09763  -0.00411   0.00000  -0.01694  -0.01682   2.08081
   A40        2.10276  -0.00434   0.00000  -0.01883  -0.01872   2.08404
   A41        1.96187  -0.00137   0.00000  -0.00695  -0.00691   1.95496
   A42        2.06697  -0.00070   0.00000  -0.00125  -0.00144   2.06553
   A43        2.25435   0.00207   0.00000   0.00821   0.00834   2.26269
    D1        0.00000   0.00000   0.00000   0.00000   0.00000   0.00000
    D2       -3.14159  -0.00000   0.00000   0.00000   0.00000  -3.14159
    D3        3.14159   0.00000   0.00000   0.00000   0.00000   3.14159
    D4       -0.00000   0.00000   0.00000   0.00000   0.00000   0.00000
    D5       -0.00000   0.00000   0.00000   0.00000   0.00000   0.00000
    D6        3.14159   0.00000   0.00000   0.00000   0.00000   3.14159
    D7       -3.14159  -0.00000   0.00000  -0.00000  -0.00000  -3.14159
    D8        0.00000  -0.00000   0.00000  -0.00000  -0.00000   0.00000
    D9       -0.00000  -0.00000   0.00000  -0.00000  -0.00000  -0.00000
   D10        3.14159  -0.00000   0.00000  -0.00000  -0.00000   3.14159
   D11        3.14159  -0.00000   0.00000  -0.00000  -0.00000   3.14159
   D12       -0.00000  -0.00000   0.00000  -0.00000  -0.00000  -0.00000
   D13        3.14159   0.00000   0.00000   0.00000   0.00000  -3.14159
   D14       -0.00000   0.00000   0.00000   0.00000   0.00000   0.00000
   D15        0.00000   0.00000   0.00000   0.00000   0.00000   0.00000
   D16       -3.14159  -0.00000   0.00000  -0.00000  -0.00000  -3.14159
   D17       -3.14159   0.00000   0.00000   0.00000   0.00000  -3.14159
   D18        0.00000   0.00000   0.00000   0.00000   0.00000   0.00000
   D19        0.00000  -0.00000   0.00000  -0.00000  -0.00000   0.00000
   D20        3.14157   0.00000   0.00000   0.00000   0.00000   3.14157
   D21       -3.14159  -0.00000   0.00000  -0.00000  -0.00000  -3.14159
   D22       -0.00002   0.00000   0.00000   0.00000   0.00000  -0.00002
   D23        0.00000   0.00000   0.00000   0.00000   0.00000   0.00000
   D24       -3.14159  -0.00000   0.00000  -0.00000  -0.00000   3.14159
   D25       -3.14159   0.00000   0.00000   0.00000   0.00000  -3.14159
   D26        0.00000   0.00000   0.00000   0.00000   0.00000   0.00000
   D27       -0.00000  -0.00000   0.00000  -0.00000  -0.00000  -0.00000
   D28       -3.14159  -0.00000   0.00000  -0.00000  -0.00000   3.14159
   D29        3.14159   0.00000   0.00000  -0.00000  -0.00000   3.14159
   D30        0.00000   0.00000   0.00000   0.00000   0.00000   0.00000
   D31       -0.00000   0.00000   0.00000   0.00000   0.00000   0.00000
   D32        3.14158   0.00000   0.00000   0.00000   0.00000   3.14159
   D33       -3.14158   0.00000   0.00000   0.00000   0.00000  -3.14158
   D34        0.00001   0.00000   0.00000   0.00000   0.00000   0.00001
   D35        0.00000  -0.00000   0.00000  -0.00000  -0.00000  -0.00000
   D36       -3.14158  -0.00000   0.00000  -0.00000  -0.00000  -3.14159
   D37       -0.00001   0.00000   0.00000   0.00000   0.00000  -0.00001
   D38        3.14159  -0.00000   0.00000   0.00000   0.00000   3.14159
   D39        3.14158   0.00000   0.00000   0.00000   0.00000   3.14158
   D40       -0.00001   0.00000   0.00000   0.00000   0.00000  -0.00001
   D41        0.00001  -0.00000   0.00000  -0.00000  -0.00000   0.00001
   D42       -3.14158  -0.00000   0.00000  -0.00000  -0.00000  -3.14158
   D43       -3.14158  -0.00000   0.00000  -0.00000  -0.00000  -3.14158
   D44        0.00001  -0.00000   0.00000  -0.00000  -0.00000   0.00001
   D45        3.14158   0.00000   0.00000   0.00001   0.00001   3.14159
[...]
 23,0.,0.00226940,0.00022976,0.,-0.00009519,-0.00007535,0.,0.00005920,0
 .00006162,0.,0.00015169,-0.00007494,0.,0.00010594,-0.00004163,0.,0.011
 96341,0.00961762,-0.00000017,-0.00278084,-0.00301003,-0.00000062,0.071
 13183,0.01585645,0.00000351,0.09018536,-0.28461710,-0.00000598,0.02756
 556,-0.06323633,-0.00000284,-0.01238867,0.66973952,-0.00000002,0.00000
 002,0.00003483,0.,0.00000002,0.00030926,0.,-0.00000005,-0.00067316,-0.
 00000002,0.00000002,-0.00010863,0.,-0.00000003,0.00005780,0.00000003,0
 .,-0.00001146,0.,0.,-0.00000328,0.,0.,-0.00000337,0.,0.,0.00001477,0.,
 0.,-0.00001973,-0.00000005,0.00000029,0.00019392,-0.00000010,-0.000000
 18,-0.00065956,0.00000084,0.00000120,0.00868366,-0.00000145,-0.0000034
 8,-0.06275199,-0.00000004,-0.00000123,-0.00529188,0.00001833,0.0000123
 4,0.12323519,0.00024475,0.00002870,0.,-0.00059711,0.00030439,0.,0.0003
 4685,-0.00015950,0.,0.00001671,0.00004005,0.,0.00004086,0.00006296,0.,
 -0.00007415,-0.00007370,0.,-0.00001471,-0.00000574,0.,0.00003474,0.000
 00378,0.,0.00000776,0.00000045,0.,0.00002596,-0.00000402,0.,0.00017411
 ,0.00051314,0.,-0.00055863,0.00155501,-0.00000001,-0.00643630,-0.02841
 583,-0.00000237,-0.10015926,-0.10006192,-0.00000636,-0.00494772,0.0026
 1249,0.00000036,0.01145538,0.01842775,0.00000091,0.10154819,0.00002753
 ,-0.00007711,0.,-0.00018276,0.00047170,0.00000006,0.00023067,-0.000112
 71,-0.00000001,0.00003276,0.00004318,0.,0.00000680,0.00008155,0.,-0.00
 010634,0.00001114,0.,-0.00000568,0.00001508,0.,0.00001315,-0.00000627,
 0.,-0.00000790,0.00000459,0.,-0.00000693,0.00000322,0.,-0.00080542,0.0
 0014149,0.00000005,-0.00031688,0.00025041,-0.00000017,0.00084604,-0.00
 014592,-0.00000012,-0.09749946,-0.29674769,-0.00001571,0.00053849,0.00
 212484,-0.00000008,-0.01391136,-0.01689699,-0.00000144,0.10587691,0.31
 384757,0.00000004,-0.00000004,-0.00000243,-0.00000008,0.00000005,-0.00
 044178,0.00000002,0.,0.00017753,0.00000003,0.,0.00007042,0.,0.00000005
 ,-0.00001732,-0.00000005,-0.00000001,0.00002005,0.,0.,-0.00000802,0.,0
 .,-0.00001237,0.,0.,-0.00000518,0.,0.,0.00001379,-0.00000007,-0.000000
 05,-0.00022828,-0.00000005,0.00000012,0.00088351,-0.00000125,-0.000001
 12,0.00307314,-0.00000569,-0.00001651,-0.03753275,-0.00000065,0.000000
 77,0.00568578,-0.00000098,0.00000054,0.00525913,0.00000765,0.00001743,
 0.02468891,-0.00028263,0.00103464,0.00000002,0.00111061,-0.00018709,0.
 ,0.00259767,0.00022776,0.00000002,-0.00098596,0.00003076,0.00000003,0.
 00001909,-0.00112439,0.,0.00107196,0.00014551,0.,-0.00008495,0.0000259
 6,0.,0.00011904,0.00000629,-0.00000001,0.00005384,-0.00002648,0.,0.000
 05509,0.00000360,0.,0.00633138,0.01455701,0.,-0.00036695,-0.00067735,-
 0.00000029,0.05421749,0.01183383,0.00000177,-0.05523826,0.02735743,-0.
 00000023,-0.15082037,0.04740104,-0.00000810,-0.01091669,-0.08252042,-0
 .00000140,-0.00051798,0.00055790,0.00000069,0.74740891,0.00071691,-0.0
 0064295,0.00000005,-0.00153811,-0.00002328,-0.00000003,-0.00072860,-0.
 00017382,-0.00000014,0.00073413,-0.00005496,-0.00000002,0.00005259,0.0
 0093361,0.,-0.00092302,-0.00020930,0.,0.00001631,0.00002939,0.,-0.0000
 2299,-0.00000946,0.,-0.00004252,0.00002886,0.,-0.00000635,0.00000299,0
 .,-0.00387121,-0.00368247,0.00000030,0.00193818,0.00023813,0.00000014,
 -0.00466858,-0.02915967,0.00000062,0.02015950,-0.01196809,-0.00000032,
 0.09052826,-0.24380098,0.00000796,-0.03578435,0.02064525,-0.00000141,0
 .00020703,0.00050864,-0.00000006,0.06528003,0.69744423,0.00000008,-0.0
 0000005,-0.00013438,-0.00000022,0.00000005,-0.00016280,0.00000005,0.00
 000010,-0.00100353,0.00000008,-0.00000001,0.00006369,0.00000002,0.0000
 0009,0.00001825,-0.00000010,-0.00000001,0.00003968,0.,0.,-0.00005200,0
 .,0.,-0.00003733,0.,0.,-0.00001405,0.,0.,0.00004035,-0.00000049,0.0000
 0012,0.00220178,0.00000011,-0.00000032,-0.00064555,0.00000163,-0.00000
 143,0.00853750,-0.00000241,0.00000078,-0.00232918,-0.00000890,0.000008
 31,-0.07322328,-0.00000025,-0.00000313,0.00805228,-0.00000003,0.000000
 03,-0.00060577,0.00002441,-0.00000469,0.12190953,0.00088594,-0.0012946
 5,0.00000004,-0.00201491,0.00070458,-0.00000004,-0.00109889,-0.0005387
 0,-0.00000017,0.00120769,-0.00005978,-0.00000003,0.00001102,0.00158174
 ,0.,-0.00162556,-0.00022287,0.,0.00006664,0.00004768,0.,-0.00006253,-0
 .00004115,0.,-0.00010476,0.00005662,0.,-0.00006841,0.00002377,0.,-0.00
 755678,-0.00730596,0.00000021,0.00194064,0.00152463,0.00000038,-0.0429
 1045,-0.00551344,-0.00000252,0.06270673,-0.01138041,0.00000120,-0.0525
 8895,0.05360791,0.00000215,-0.15702860,-0.03473379,-0.00000393,-0.0020
 8389,0.00438537,-0.00000028,-0.39687856,-0.07273016,-0.00001417,0.7430
 6209,0.00054345,-0.00080806,0.,-0.00104761,0.00052193,-0.00000005,-0.0
 0049051,-0.00095802,-0.00000006,0.00052057,0.00002930,0.,0.00000964,0.
 00084941,0.,-0.00096562,-0.00009263,0.,0.00004833,0.00001612,0.,-0.000
 03949,-0.00001933,0.,-0.00006203,0.00003276,0.,-0.00004067,0.00001325,
 0.,-0.00740834,-0.00647733,-0.00000006,0.00115300,0.00108826,0.0000003
 4,-0.03901140,-0.01141660,-0.00000251,0.04315928,-0.06100820,-0.000000
 09,0.00755647,0.05503703,0.00000133,-0.10737564,-0.28828666,-0.0000051
 2,0.00323929,-0.00257406,-0.00000067,-0.00379111,-0.13941475,0.0000013
 7,-0.03119827,0.70062644,0.00000003,-0.00000004,-0.00000060,-0.0000000
 7,0.00000005,0.00006896,0.00000001,-0.00000004,0.00031832,0.00000003,0
 .,-0.00000269,0.,0.00000005,-0.00002300,-0.00000005,0.,0.00000144,0.,0
 .,0.00000669,0.,0.,0.00001611,0.,0.,-0.00000102,0.,0.,-0.00000809,-0.0
 0000026,-0.00000005,-0.00050167,0.00000005,0.00000005,-0.00002070,-0.0
 0000137,0.00000022,-0.00407988,0.00000225,-0.00000218,0.00679294,-0.00
 000286,0.00000150,-0.00080926,-0.00000386,-0.00000223,-0.06296173,-0.0
 0000023,-0.00000049,0.00787336,-0.00001460,-0.00000213,-0.05825200,0.0
 0002319,0.00000216,0.14430317,0.00002337,-0.00007607,0.,-0.00005941,0.
 00012451,0.,-0.00001422,-0.00010143,0.00000002,0.00004294,0.00003164,0
 .,-0.00001070,0.00006630,0.,-0.00008198,0.00000659,0.,0.00000384,0.000
 00807,0.,0.00000088,-0.00000617,0.,-0.00001066,0.00000638,0.,-0.000009
 15,0.00000502,0.,-0.00045246,0.00035478,0.00000003,0.00002714,0.000081
 26,0.,0.00027658,0.00355045,-0.00000013,-0.01342877,-0.00634751,-0.000
 00077,0.00054416,0.00003724,0.00000010,-0.34315480,-0.03695431,-0.0000
 1209,0.00076920,0.00011102,0.00000022,0.00131290,-0.00214516,-0.000000
 15,-0.00712506,0.00282571,-0.00000035,0.36144755,-0.00000415,0.0000323
 6,0.,0.00003466,-0.00006292,0.,0.00009596,0.00007443,0.,-0.00001678,-0
 .00004061,0.,0.00001381,-0.00002278,0.,0.00003183,-0.00000338,0.,-0.00
 000114,-0.00000336,0.,0.00000145,0.00000215,0.,0.00000504,-0.00000475,
 0.,0.00000378,-0.00000158,0.,0.00041149,-0.00016153,0.,0.00000578,0.00
 004234,0.,0.00211476,-0.00375168,-0.00000025,0.02617478,0.00665643,0.0
 0000109,0.00040020,-0.00148634,-0.00000002,-0.03779342,-0.06207112,-0.
 00000203,-0.00027008,0.00097299,0.00000019,-0.00093151,-0.00501153,-0.
 00000013,-0.02947231,0.00110437,-0.00000120,0.03953711,0.06187199,0.,0
 .,-0.00000449,0.00000002,0.,-0.00004393,-0.00000002,0.,-0.00028639,0.,
 0.,-0.00001720,0.,0.,0.00002563,0.,0.,-0.00000456,0.,0.,-0.00000063,0.
 ,0.,-0.00000985,0.,0.,0.00000568,0.,0.,0.00000541,0.00000001,0.0000000
 5,-0.00028329,0.,0.00000001,0.00008014,0.00000016,-0.00000032,0.007515
 56,0.00000011,0.00000008,0.00128299,0.00000010,0.00000011,-0.00076782,
 -0.00001302,-0.00000220,-0.03144147,0.00000024,0.00000031,-0.00492993,
 0.00000020,-0.00000018,0.00548469,-0.00000090,-0.00000012,0.00094747,0
 .00001312,0.00000233,0.02416649,-0.00006060,0.00000454,-0.00000001,0.0
 0005925,0.00007526,0.,-0.00005220,-0.00000285,0.00000002,-0.00001809,0
 .00000500,0.,-0.00000737,-0.00003470,0.,0.00003511,0.00001528,0.,0.000
 00228,-0.00000436,0.,-0.00000588,0.00000223,0.,0.00000210,-0.00000094,
 0.,-0.00000270,-0.00000191,0.,0.00026941,-0.00037388,-0.00000001,-0.00
 027427,0.00004272,0.,-0.00183317,0.00237455,-0.00000034,-0.00123722,0.
 00058186,0.00000006,0.00972161,0.01922383,0.00000034,-0.00500580,0.000
 49253,-0.00000059,0.00009680,-0.00010367,0.00000005,-0.09921029,-0.103
 36744,-0.00000213,-0.00599670,-0.02913074,0.00000007,-0.00047988,-0.00
 137998,-0.00000011,0.10105682,0.00002932,0.00010051,0.,-0.00005452,-0.
 00015145,0.,0.00009319,0.00013597,0.,-0.00004232,-0.00001854,0.,0.0000
 1519,-0.00005805,0.,0.00006896,-0.00001909,0.,-0.00000781,0.00000093,0
 .,0.00000789,0.00000338,0.,0.00000958,-0.00000468,0.,0.00001241,-0.000
 00241,0.,0.00011572,0.00066301,0.00000003,0.00023664,-0.00030583,-0.00
 000002,0.00382925,-0.00273018,0.00000059,0.00117913,0.00027119,-0.0000
 0007,-0.01503702,-0.01806164,-0.00000121,-0.00020702,0.00219293,0.0000
 0039,-0.00007358,-0.00006297,-0.00000005,-0.10224541,-0.30331580,0.000
 00089,0.00218192,0.00065076,-0.00000013,0.00008597,-0.00006725,0.00000
 003,0.11149508,0.31835634,0.,0.,0.00003449,0.,0.,-0.00000002,0.,-0.000
 00002,-0.00005583,0.,0.,0.00000173,0.,0.,-0.00000009,0.,0.,-0.00000207
 ,0.,0.,0.00000237,0.,0.,0.00000200,0.,0.,0.00000286,0.,0.,-0.00000566,
 -0.00000003,-0.00000008,0.00005334,-0.00000002,0.00000007,0.00000793,-
 0.00000069,0.00000009,0.00484037,0.00000009,-0.00000012,-0.00079160,0.
 00000069,0.00000246,0.00464304,-0.00000045,0.00000015,0.00818859,0.000
 00005,0.00000006,-0.00088355,-0.00000095,-0.00000131,-0.03425348,-0.00
 000075,-0.00000116,0.00251132,-0.00000006,-0.00000005,0.00053817,0.000
 00221,-0.00000017,0.02439260,0.00003468,-0.00005224,0.,-0.00005186,0.0
 0012163,0.,0.00012081,-0.00009453,-0.00000003,0.00002653,0.00001001,0.
 ,-0.00000252,0.00005552,0.,-0.00006818,0.00000195,0.,0.00000139,0.0000
 0586,0.,0.00000349,-0.00000448,0.,-0.00000845,0.00000429,0.,-0.0000058
 3,0.00000401,0.,-0.00020270,0.00037439,0.00000004,0.00002337,0.0002379
 5,0.,-0.00095108,-0.00012738,0.00000001,0.00049539,-0.00295975,-0.0000
 0036,-0.00402761,-0.00296476,-0.00000006,0.01028915,-0.01065583,0.0000
 0019,0.00038281,-0.00057771,-0.00000003,-0.01271955,0.02673507,-0.0000
 0150,-0.16402892,0.13594981,-0.00000366,0.00066286,0.00042967,0.000000
 22,0.00101411,-0.00028157,0.00000012,0.17013493,0.00001225,0.00002544,
 0.,-0.00005642,-0.00001364,0.,-0.00001481,0.00005349,0.,-0.00000194,-0
 .00000706,0.,0.00000742,-0.00001090,0.,0.00001779,-0.00001083,0.,-0.00
 000356,-0.00000286,0.,0.00000143,0.00000337,0.,0.00000552,-0.00000194,
 0.,0.00000608,-0.00000316,0.,0.00014617,-0.00015831,0.,-0.00005154,-0.
 00001958,0.,-0.00076281,0.00047181,0.00000002,-0.00365931,-0.00442919,
 -0.00000013,-0.00223029,0.00105193,-0.00000009,0.02053355,-0.01553550,
 0.00000071,0.00095609,-0.00111919,-0.00000011,-0.00521410,0.00619617,-
 0.00000048,0.13663943,-0.23734749,0.00000482,-0.00017776,0.00101606,0.
 00000003,0.00014857,0.00077281,0.00000003,-0.14666562,0.24853521,-0.00
 000003,0.00000004,-0.00000923,0.00000007,-0.00000003,-0.00003951,0.000
 00003,0.,0.00017617,-0.00000004,0.,-0.00000202,0.,-0.00000004,-0.00000
 525,0.00000005,0.,-0.00000444,0.,0.,0.00000654,0.,0.,0.00000357,0.,0.,
 0.00000080,0.,0.,0.00000333,0.00000026,0.00000020,-0.00033443,-0.00000
 003,0.00000002,0.00021442,0.00000068,-0.00000015,-0.00107509,-0.000000
 58,0.00000023,0.00581414,0.00000011,-0.00000105,0.00990167,-0.00000008
 ,-0.00000141,0.00462144,-0.00000003,0.00000008,-0.00023985,-0.00000199
 ,0.00000178,0.00579299,-0.00000267,0.00000497,-0.04165167,0.00000016,0
 .00000005,-0.00317292,0.00000030,-0.00000022,-0.00522804,0.00000498,-0
 .00000480,0.02694901,-0.00548152,-0.00406899,-0.00000017,-0.00012685,0
 .01806671,0.00000068,-0.08012527,0.04278362,0.00000178,0.01280793,-0.0
 0287499,-0.00000012,-0.00363183,0.00573904,-0.00000009,-0.00147394,-0.
 00434081,0.00000007,0.00028075,-0.00094834,0.00000003,-0.00040320,-0.0
 0013976,0.,0.00036784,-0.00003934,-0.00000004,-0.00067243,-0.00014227,
 0.00000005,-0.40408024,-0.05389560,0.00000817,-0.05464191,-0.03345450,
 -0.00000206,-0.15271429,0.06967712,0.00000112,-0.04877599,0.03543268,0
 .00000079,0.04802346,0.01462590,-0.00000062,0.00030723,-0.02388156,-0.
 00000060,0.00114114,0.00126637,0.00000052,-0.01079391,0.00332247,-0.00
 000003,0.01206720,0.00977641,0.00000039,-0.00021093,0.00087963,-0.0000
 0006,0.00017889,-0.00140298,0.00000020,0.00048132,-0.00002555,-0.00000
 033,0.72586696,0.00273532,-0.00324744,-0.00000023,0.02533985,-0.023016
 05,-0.00000062,0.01148831,0.01349544,-0.00000116,0.00893338,-0.0087554
 6,-0.00000006,-0.00172017,0.00668355,-0.00000002,-0.00428501,-0.004601
 06,0.00000013,0.00030424,-0.00066636,0.00000003,-0.00057129,-0.0000287
 5,-0.00000002,0.00017457,-0.00033226,0.,-0.00046227,0.00005746,0.00000
 003,-0.07744335,-0.15086956,0.00000227,0.00387648,-0.15131856,-0.00000
 139,0.06437923,-0.19444685,-0.00000745,0.02550014,0.00245979,0.0000013
 6,0.00078847,-0.04027383,0.00000018,-0.00812247,0.01960855,-0.00000036
 ,-0.00202721,-0.00030140,-0.00000015,0.00511216,-0.01062863,-0.0000011
 0,-0.01274091,-0.00943892,-0.00000026,-0.00101951,0.00076142,-0.000000
 15,0.00129615,-0.00050925,0.00000004,-0.00047918,0.00018033,0.00000036
 ,-0.03707084,0.54438855,0.00000043,-0.00000036,-0.00027879,-0.00000056
 ,0.00000073,0.00345531,0.00000033,-0.00000042,0.00370171,0.00000029,-0
 .00000006,0.00249950,0.00000001,0.00000039,0.00083069,-0.00000044,-0.0
 0000007,0.00090915,0.00000003,0.,-0.00042471,0.,0.,-0.00037592,-0.0000
 0003,0.,-0.00043288,-0.00000002,0.,-0.00002405,0.00000813,0.00000066,-
 0.06574892,-0.00000011,-0.00000241,-0.03647322,0.00000125,-0.00000391,
 -0.05466994,0.00000082,0.00000048,-0.00522157,0.00000127,-0.00000412,0
 .00319008,-0.00000049,0.00000082,0.00618726,-0.00000003,0.00000003,-0.
 00297913,-0.00000018,-0.00000097,0.00402916,-0.00000076,-0.00000036,-0
 .00088715,-0.00000012,-0.00000001,0.00140337,0.00000014,-0.00000009,-0
 .00024819,0.00000003,0.,-0.00070677,-0.00001143,0.00000816,0.13980268,
 -0.00100533,0.00312719,-0.00000004,0.00282189,0.00166913,0.00000004,0.
 01237235,-0.00022275,0.00000031,-0.00308717,0.00036492,0.00000007,0.00
 001091,-0.00325499,0.00000001,0.00301764,0.00073849,0.,-0.00026637,0.0
 0021609,0.,0.00031683,-0.00003212,-0.00000005,0.00003452,-0.00001679,-
 0.00000001,0.00008312,0.00007516,0.,0.02617242,0.07081460,-0.00000026,
 -0.00108843,-0.00058990,-0.00000074,-0.01636250,-0.05581477,0.00000096
 ,-0.01360659,0.00501330,0.00000058,-0.42948200,-0.05638267,0.00001436,
 -0.00501880,-0.02193416,0.,-0.00135201,-0.00053240,-0.00000010,-0.0791
 3229,0.02002630,0.00000371,0.02233933,0.01731992,0.00000128,-0.0001419
 7,-0.00030785,-0.00000008,0.00191401,-0.00024447,-0.00000042,-0.001613
 73,0.00050746,-0.00000091,-0.04363533,0.02560551,0.00000098,0.54618614
 ,-0.00061318,-0.00157175,0.00000010,0.00024319,-0.00476228,0.00000009,
 -0.01667870,-0.00538323,-0.00000033,0.00052109,-0.00070587,-0.00000004
 ,0.00059534,0.00112737,0.,-0.00071949,-0.00033208,0.,0.00029700,-0.000
 44045,0.,0.00009127,0.00022030,-0.00000003,0.00019318,-0.00015483,0.,0
 .00010329,-0.00010872,0.,0.02062122,-0.10860187,-0.00000327,-0.0004315
 2,-0.00466141,0.00000028,-0.04973802,0.00243327,0.00000071,0.01243359,
 -0.00954203,-0.00000018,-0.07241563,-0.11884491,0.00000041,-0.00151589
 ,0.01273827,0.00000035,-0.00156026,-0.00020389,-0.00000038,0.05244630,
 0.01288535,-0.00000027,-0.00788464,-0.01426631,-0.00000012,-0.00000529
 ,0.00060279,0.,-0.00214954,0.00308721,-0.00000008,0.00176024,0.0001102
 9,0.00000037,0.01920536,0.00039015,-0.00000047,0.06939966,0.22439324,-
 0.00000003,-0.00000035,-0.00030423,-0.00000006,-0.00000058,-0.00030722
 ,-0.00000240,-0.00000051,0.00232208,0.00000025,-0.00000007,0.00011114,
 0.00000005,0.00000028,-0.00007797,-0.00000023,-0.00000007,0.00004914,0
 .00000005,-0.00000006,0.00002312,0.,0.00000003,0.00002010,0.00000002,-
 0.00000001,-0.00001042,0.,-0.00000001,0.00000321,0.00000082,-0.0000132
 2,0.00961813,0.,-0.00000029,-0.00053457,-0.00000369,0.00000125,0.01610
 642,0.00000160,-0.00000149,0.00601040,0.00001974,0.00000136,-0.0656542
 8,0.00000047,0.00000189,-0.00081639,-0.00000005,-0.00000002,0.00015670
 ,0.00000248,-0.00000029,0.01263743,-0.00000160,-0.00000079,0.00528512,
 0.00000003,0.00000005,-0.00061118,-0.00000003,0.00000008,-0.00355752,0
 .00000011,-0.00000002,-0.00076472,0.00000439,-0.00000158,-0.00191671,-
 0.00001904,0.00000194,0.04959486,0.00086355,-0.00031652,0.00000004,-0.
 00362689,0.00134729,-0.00000004,0.00370364,0.01126688,-0.00000043,0.00
 144235,-0.00012875,-0.00000003,-0.00001350,0.00062305,0.,-0.00062120,-
 0.00020584,0.,-0.00005298,0.00011775,0.,-0.00061222,-0.00024348,0.,0.0
 0002241,-0.00002235,0.,-0.00001882,-0.00006294,0.,-0.06239857,-0.03426
 226,0.00000168,-0.00278816,-0.00359097,0.00000019,-0.00341113,0.006357
 43,-0.00000016,0.00232334,0.00004232,0.00000004,-0.03844637,0.01961292
 ,0.00000416,0.00041824,0.00318906,0.,0.00045650,0.00016352,0.00000003,
 0.00365041,-0.00388828,0.00000030,-0.00311431,-0.00154045,0.,0.0000685
 8,0.00003727,0.00000002,-0.00016622,0.00023644,0.,0.00000959,-0.000118
 05,0.00000002,0.00524493,-0.02959162,0.00000047,-0.01947663,-0.0241985
 5,-0.00000286,0.11654346,-0.00004159,0.00303590,-0.00000001,0.00282688
 ,0.00756637,0.00000011,0.02620959,-0.00225677,-0.00000004,-0.00290417,
 0.00234862,0.00000004,-0.00081737,-0.00324865,0.00000002,0.00206833,0.
 00125807,-0.00000003,-0.00042564,0.00061489,0.,0.00021390,-0.00041607,
 0.00000002,-0.00032657,0.00026890,0.,-0.00010977,0.00018578,0.,-0.0127
 8466,-0.05088044,0.00000048,0.00088451,0.00876870,-0.00000048,0.011303
 35,-0.02757443,-0.00000080,-0.01413085,0.00122953,-0.00000034,0.082858
 68,0.02303343,-0.00000255,0.00018286,-0.01682329,-0.00000004,-0.001176
 20,-0.00022821,0.,-0.02930238,0.00918305,-0.00000014,0.01436340,0.0121
 3872,0.,0.00000115,-0.00044851,0.,0.00079240,-0.00092791,0.00000009,-0
 .00082734,0.00024273,-0.00000041,-0.05848976,0.01040915,0.00000198,-0.
 07554489,0.01159139,0.00001250,0.05517614,0.01092906,0.00000001,0.0000
 0010,0.00070223,0.00000010,0.00000038,0.00138009,0.00000114,-0.0000001
 7,-0.00361528,-0.00000017,0.00000001,-0.00062274,0.,-0.00000012,-0.000
 06736,0.00000007,0.00000006,-0.00011078,-0.00000001,0.00000002,0.00002
 848,-0.00000009,0.,0.00016505,0.,0.,0.00004253,0.,0.,-0.00000075,0.000
 00179,0.00000930,-0.02730993,-0.00000005,-0.00000019,0.00320377,0.0000
 0118,-0.00000112,-0.00323091,-0.00000096,0.00000011,-0.00080350,0.0000
 0490,-0.00000137,0.00131686,0.00000021,-0.00000102,-0.00009550,-0.0000
 0011,0.,-0.00001594,-0.00000187,0.00000071,0.00190603,0.00000065,0.000
 00082,0.00107454,-0.00000002,-0.00000002,0.00011808,0.00000002,-0.0000
 0005,-0.00019276,-0.00000007,0.00000002,-0.00025014,-0.00000266,0.0000
 0200,0.00437903,-0.00000061,0.00000090,-0.02738264,-0.00000342,-0.0000
 1040,0.04938152\\0.00098310,0.00166012,0.00000035,0.00229164,0.0031693
 2,0.00000161,0.00417388,-0.00016354,0.00000114,-0.00072041,0.00120948,
 -0.00000086,0.00000025,-0.00060811,0.00000015,0.00108481,0.00106238,0.
 00000022,-0.00001050,0.00018486,-0.00000010,0.00005772,0.00001946,0.,0
 .00000152,0.00007027,0.00000003,0.00006927,0.00007577,-0.00000020,-0.0
 0663304,0.00388255,0.00000111,0.00116190,0.00239062,-0.00000294,-0.003
 95135,0.00213831,-0.00001026,0.00325540,-0.00003291,-0.00000027,0.0065
 6178,0.00105330,0.00003177,-0.00123354,0.00398310,0.00000139,0.0000859
 6,0.00004671,-0.00000017,-0.00104704,0.00031672,-0.00000979,-0.0020269
 1,0.00021816,-0.00000244,-0.00008025,0.00018100,-0.00000035,-0.0000093
 2,0.00000222,-0.00000005,-0.00016925,-0.00001322,0.00000111,-0.0043262
 9,-0.00297619,0.00000310,-0.00327237,-0.00539261,-0.00000780,0.0037530
 3,-0.01247774,-0.00000674\\\@
 The archive entry for this job was punched.


 A SUCCESSFUL PURSUIT OF SCIENCE MAKES A MAN THE
 BENEFACTOR OF ALL MANKIND OF EVERY AGE.
   --  JOSEPH PRIESTLEY, "EXPERIMENTS AND
 OBSERVATIONS ON DIFFERENT KINDS OF AIR", 1774
 Job cpu time:       0 days  1 hours  1 minutes 40.4 seconds.
 Elapsed time:       0 days  0 hours  6 minutes 17.4 seconds.
 File lengths (MBytes):  RWF=    544 Int=      0 D2E=      0 Chk=     36 Scr=      8
 Normal termination of Gaussian 16 at Tue Oct 27 21:42:39 2020.
